<?xml version="1.0"?>
<VTKFile type="UnstructuredGrid"  version="0.1"  >
<UnstructuredGrid>
<Piece  NumberOfPoints="961" NumberOfCells="1800">
<Points>
<DataArray  type="Float64"  NumberOfComponents="3"  format="ascii">-2 -2 0  -1.866666666666667 -2 0  -1.733333333333333 -2 0  -1.6 -2 0  -1.466666666666667 -2 0  -1.333333333333333 -2 0  -1.2 -2 0  -1.066666666666667 -2 0  -0.9333333333333333 -2 0  -0.8 -2 0  -0.6666666666666667 -2 0  -0.5333333333333334 -2 0  -0.3999999999999999 -2 0  -0.2666666666666666 -2 0  -0.1333333333333333 -2 0  0 -2 0  0.1333333333333333 -2 0  0.2666666666666666 -2 0  0.3999999999999999 -2 0  0.5333333333333332 -2 0  0.6666666666666665 -2 0  0.7999999999999998 -2 0  0.9333333333333331 -2 0  1.066666666666667 -2 0  1.2 -2 0  1.333333333333333 -2 0  1.466666666666667 -2 0  1.6 -2 0  1.733333333333333 -2 0  1.866666666666667 -2 0  2 -2 0  -2 -1.866666666666667 0  -1.866666666666667 -1.866666666666667 0  -1.733333333333333 -1.866666666666667 0  -1.6 -1.866666666666667 0  -1.466666666666667 -1.866666666666667 0  -1.333333333333333 -1.866666666666667 0  -1.2 -1.866666666666667 0  -1.066666666666667 -1.866666666666667 0  -0.9333333333333333 -1.866666666666667 0  -0.8 -1.866666666666667 0  -0.6666666666666667 -1.866666666666667 0  -0.5333333333333334 -1.866666666666667 0  -0.3999999999999999 -1.866666666666667 0  -0.2666666666666666 -1.866666666666667 0  -0.1333333333333333 -1.866666666666667 0  0 -1.866666666666667 0  0.1333333333333333 -1.866666666666667 0  0.2666666666666666 -1.866666666666667 0  0.3999999999999999 -1.866666666666667 0  0.5333333333333332 -1.866666666666667 0  0.6666666666666665 -1.866666666666667 0  0.7999999999999998 -1.866666666666667 0  0.9333333333333331 -1.866666666666667 0  1.066666666666667 -1.866666666666667 0  1.2 -1.866666666666667 0  1.333333333333333 -1.866666666666667 0  1.466666666666667 -1.866666666666667 0  1.6 -1.866666666666667 0  1.733333333333333 -1.866666666666667 0  1.866666666666667 -1.866666666666667 0  2 -1.866666666666667 0  -2 -1.733333333333333 0  -1.866666666666667 -1.733333333333333 0  -1.733333333333333 -1.733333333333333 0  -1.6 -1.733333333333333 0  -1.466666666666667 -1.733333333333333 0  -1.333333333333333 -1.733333333333333 0  -1.2 -1.733333333333333 0  -1.066666666666667 -1.733333333333333 0  -0.9333333333333333 -1.733333333333333 0  -0.8 -1.733333333333333 0  -0.6666666666666667 -1.733333333333333 0  -0.5333333333333334 -1.733333333333333 0  -0.3999999999999999 -1.733333333333333 0  -0.2666666666666666 -1.733333333333333 0  -0.1333333333333333 -1.733333333333333 0  0 -1.733333333333333 0  0.1333333333333333 -1.733333333333333 0  0.2666666666666666 -1.733333333333333 0  0.3999999999999999 -1.733333333333333 0  0.5333333333333332 -1.733333333333333 0  0.6666666666666665 -1.733333333333333 0  0.7999999999999998 -1.733333333333333 0  0.9333333333333331 -1.733333333333333 0  1.066666666666667 -1.733333333333333 0  1.2 -1.733333333333333 0  1.333333333333333 -1.733333333333333 0  1.466666666666667 -1.733333333333333 0  1.6 -1.733333333333333 0  1.733333333333333 -1.733333333333333 0  1.866666666666667 -1.733333333333333 0  2 -1.733333333333333 0  -2 -1.6 0  -1.866666666666667 -1.6 0  -1.733333333333333 -1.6 0  -1.6 -1.6 0  -1.466666666666667 -1.6 0  -1.333333333333333 -1.6 0  -1.2 -1.6 0  -1.066666666666667 -1.6 0  -0.9333333333333333 -1.6 0  -0.8 -1.6 0  -0.6666666666666667 -1.6 0  -0.5333333333333334 -1.6 0  -0.3999999999999999 -1.6 0  -0.2666666666666666 -1.6 0  -0.1333333333333333 -1.6 0  0 -1.6 0  0.1333333333333333 -1.6 0  0.2666666666666666 -1.6 0  0.3999999999999999 -1.6 0  0.5333333333333332 -1.6 0  0.6666666666666665 -1.6 0  0.7999999999999998 -1.6 0  0.9333333333333331 -1.6 0  1.066666666666667 -1.6 0  1.2 -1.6 0  1.333333333333333 -1.6 0  1.466666666666667 -1.6 0  1.6 -1.6 0  1.733333333333333 -1.6 0  1.866666666666667 -1.6 0  2 -1.6 0  -2 -1.466666666666667 0  -1.866666666666667 -1.466666666666667 0  -1.733333333333333 -1.466666666666667 0  -1.6 -1.466666666666667 0  -1.466666666666667 -1.466666666666667 0  -1.333333333333333 -1.466666666666667 0  -1.2 -1.466666666666667 0  -1.066666666666667 -1.466666666666667 0  -0.9333333333333333 -1.466666666666667 0  -0.8 -1.466666666666667 0  -0.6666666666666667 -1.466666666666667 0  -0.5333333333333334 -1.466666666666667 0  -0.3999999999999999 -1.466666666666667 0  -0.2666666666666666 -1.466666666666667 0  -0.1333333333333333 -1.466666666666667 0  0 -1.466666666666667 0  0.1333333333333333 -1.466666666666667 0  0.2666666666666666 -1.466666666666667 0  0.3999999999999999 -1.466666666666667 0  0.5333333333333332 -1.466666666666667 0  0.6666666666666665 -1.466666666666667 0  0.7999999999999998 -1.466666666666667 0  0.9333333333333331 -1.466666666666667 0  1.066666666666667 -1.466666666666667 0  1.2 -1.466666666666667 0  1.333333333333333 -1.466666666666667 0  1.466666666666667 -1.466666666666667 0  1.6 -1.466666666666667 0  1.733333333333333 -1.466666666666667 0  1.866666666666667 -1.466666666666667 0  2 -1.466666666666667 0  -2 -1.333333333333333 0  -1.866666666666667 -1.333333333333333 0  -1.733333333333333 -1.333333333333333 0  -1.6 -1.333333333333333 0  -1.466666666666667 -1.333333333333333 0  -1.333333333333333 -1.333333333333333 0  -1.2 -1.333333333333333 0  -1.066666666666667 -1.333333333333333 0  -0.9333333333333333 -1.333333333333333 0  -0.8 -1.333333333333333 0  -0.6666666666666667 -1.333333333333333 0  -0.5333333333333334 -1.333333333333333 0  -0.3999999999999999 -1.333333333333333 0  -0.2666666666666666 -1.333333333333333 0  -0.1333333333333333 -1.333333333333333 0  0 -1.333333333333333 0  0.1333333333333333 -1.333333333333333 0  0.2666666666666666 -1.333333333333333 0  0.3999999999999999 -1.333333333333333 0  0.5333333333333332 -1.333333333333333 0  0.6666666666666665 -1.333333333333333 0  0.7999999999999998 -1.333333333333333 0  0.9333333333333331 -1.333333333333333 0  1.066666666666667 -1.333333333333333 0  1.2 -1.333333333333333 0  1.333333333333333 -1.333333333333333 0  1.466666666666667 -1.333333333333333 0  1.6 -1.333333333333333 0  1.733333333333333 -1.333333333333333 0  1.866666666666667 -1.333333333333333 0  2 -1.333333333333333 0  -2 -1.2 0  -1.866666666666667 -1.2 0  -1.733333333333333 -1.2 0  -1.6 -1.2 0  -1.466666666666667 -1.2 0  -1.333333333333333 -1.2 0  -1.2 -1.2 0  -1.066666666666667 -1.2 0  -0.9333333333333333 -1.2 0  -0.8 -1.2 0  -0.6666666666666667 -1.2 0  -0.5333333333333334 -1.2 0  -0.3999999999999999 -1.2 0  -0.2666666666666666 -1.2 0  -0.1333333333333333 -1.2 0  0 -1.2 0  0.1333333333333333 -1.2 0  0.2666666666666666 -1.2 0  0.3999999999999999 -1.2 0  0.5333333333333332 -1.2 0  0.6666666666666665 -1.2 0  0.7999999999999998 -1.2 0  0.9333333333333331 -1.2 0  1.066666666666667 -1.2 0  1.2 -1.2 0  1.333333333333333 -1.2 0  1.466666666666667 -1.2 0  1.6 -1.2 0  1.733333333333333 -1.2 0  1.866666666666667 -1.2 0  2 -1.2 0  -2 -1.066666666666667 0  -1.866666666666667 -1.066666666666667 0  -1.733333333333333 -1.066666666666667 0  -1.6 -1.066666666666667 0  -1.466666666666667 -1.066666666666667 0  -1.333333333333333 -1.066666666666667 0  -1.2 -1.066666666666667 0  -1.066666666666667 -1.066666666666667 0  -0.9333333333333333 -1.066666666666667 0  -0.8 -1.066666666666667 0  -0.6666666666666667 -1.066666666666667 0  -0.5333333333333334 -1.066666666666667 0  -0.3999999999999999 -1.066666666666667 0  -0.2666666666666666 -1.066666666666667 0  -0.1333333333333333 -1.066666666666667 0  0 -1.066666666666667 0  0.1333333333333333 -1.066666666666667 0  0.2666666666666666 -1.066666666666667 0  0.3999999999999999 -1.066666666666667 0  0.5333333333333332 -1.066666666666667 0  0.6666666666666665 -1.066666666666667 0  0.7999999999999998 -1.066666666666667 0  0.9333333333333331 -1.066666666666667 0  1.066666666666667 -1.066666666666667 0  1.2 -1.066666666666667 0  1.333333333333333 -1.066666666666667 0  1.466666666666667 -1.066666666666667 0  1.6 -1.066666666666667 0  1.733333333333333 -1.066666666666667 0  1.866666666666667 -1.066666666666667 0  2 -1.066666666666667 0  -2 -0.9333333333333333 0  -1.866666666666667 -0.9333333333333333 0  -1.733333333333333 -0.9333333333333333 0  -1.6 -0.9333333333333333 0  -1.466666666666667 -0.9333333333333333 0  -1.333333333333333 -0.9333333333333333 0  -1.2 -0.9333333333333333 0  -1.066666666666667 -0.9333333333333333 0  -0.9333333333333333 -0.9333333333333333 0  -0.8 -0.9333333333333333 0  -0.6666666666666667 -0.9333333333333333 0  -0.5333333333333334 -0.9333333333333333 0  -0.3999999999999999 -0.9333333333333333 0  -0.2666666666666666 -0.9333333333333333 0  -0.1333333333333333 -0.9333333333333333 0  0 -0.9333333333333333 0  0.1333333333333333 -0.9333333333333333 0  0.2666666666666666 -0.9333333333333333 0  0.3999999999999999 -0.9333333333333333 0  0.5333333333333332 -0.9333333333333333 0  0.6666666666666665 -0.9333333333333333 0  0.7999999999999998 -0.9333333333333333 0  0.9333333333333331 -0.9333333333333333 0  1.066666666666667 -0.9333333333333333 0  1.2 -0.9333333333333333 0  1.333333333333333 -0.9333333333333333 0  1.466666666666667 -0.9333333333333333 0  1.6 -0.9333333333333333 0  1.733333333333333 -0.9333333333333333 0  1.866666666666667 -0.9333333333333333 0  2 -0.9333333333333333 0  -2 -0.8 0  -1.866666666666667 -0.8 0  -1.733333333333333 -0.8 0  -1.6 -0.8 0  -1.466666666666667 -0.8 0  -1.333333333333333 -0.8 0  -1.2 -0.8 0  -1.066666666666667 -0.8 0  -0.9333333333333333 -0.8 0  -0.8 -0.8 0  -0.6666666666666667 -0.8 0  -0.5333333333333334 -0.8 0  -0.3999999999999999 -0.8 0  -0.2666666666666666 -0.8 0  -0.1333333333333333 -0.8 0  0 -0.8 0  0.1333333333333333 -0.8 0  0.2666666666666666 -0.8 0  0.3999999999999999 -0.8 0  0.5333333333333332 -0.8 0  0.6666666666666665 -0.8 0  0.7999999999999998 -0.8 0  0.9333333333333331 -0.8 0  1.066666666666667 -0.8 0  1.2 -0.8 0  1.333333333333333 -0.8 0  1.466666666666667 -0.8 0  1.6 -0.8 0  1.733333333333333 -0.8 0  1.866666666666667 -0.8 0  2 -0.8 0  -2 -0.6666666666666667 0  -1.866666666666667 -0.
[...]
<PointData  Scalars="f_8002"> 
<DataArray  type="Float64"  Name="f_8002"  format="ascii">0.0000000000000000e+00  0.0000000000000000e+00  0.0000000000000000e+00  0.0000000000000000e+00  0.0000000000000000e+00  0.0000000000000000e+00  0.0000000000000000e+00  0.0000000000000000e+00  0.0000000000000000e+00  0.0000000000000000e+00  0.0000000000000000e+00  0.0000000000000000e+00  0.0000000000000000e+00  0.0000000000000000e+00  0.0000000000000000e+00  0.0000000000000000e+00  0.0000000000000000e+00  0.0000000000000000e+00  0.0000000000000000e+00  0.0000000000000000e+00  0.0000000000000000e+00  0.0000000000000000e+00  0.0000000000000000e+00  0.0000000000000000e+00  0.0000000000000000e+00  0.0000000000000000e+00  0.0000000000000000e+00  0.0000000000000000e+00  0.0000000000000000e+00  0.0000000000000000e+00  0.0000000000000000e+00  0.0000000000000000e+00  -3.3349276559429103e-01  -5.7159880473278224e-01  -7.5274690315208037e-01  -8.9526045619787320e-01  -1.0093612547441113e+00  -1.1014833085697913e+00  -1.1760380064642648e+00  -1.2362287917471813e+00  -1.2844677328348633e+00  -1.3226067507441328e+00  -1.3520742943886415e+00  -1.3739598725261613e+00  -1.3890677934683173e+00  -1.3979514955314476e+00  -1.4009347540466368e+00  -1.3981232318449111e+00  -1.3894081213971898e+00  -1.3744624129299901e+00  -1.3527292553683876e+00  -1.3234006616673326e+00  -1.2853830881867860e+00  -1.2372435931484842e+00  -1.1771251719137279e+00  -1.1026098797261086e+00  -1.0104872561523135e+00  -8.9633709629614433e-01  -7.5371342455426116e-01  -5.7237630155029862e-01  -3.3397042325336063e-01  0.0000000000000000e+00  0.0000000000000000e+00  -5.7159880473278246e-01  -1.0104174754755304e+00  -1.3553976956083231e+00  -1.6311711344261310e+00  -1.8538567621421311e+00  -2.0345474347987529e+00  -2.1812421864628306e+00  -2.2999232918987560e+00  -2.3951766895347508e+00  -2.4705636506728159e+00  -2.5288516968557349e+00  -2.5721622689775407e+00  -2.6020667712594934e+00  -2.6196488951594477e+00  -2.6255435253570956e+00  -2.6199580681329020e+00  -2.6026791975524306e+00  -2.5730659425617191e+00  -2.5300281942225586e+00  -2.4719876376100021e+00  -2.3968152627736234e+00  -2.3017351382587083e+00  -2.1831765125390046e+00  -2.0365425645078816e+00  -1.8558381965234034e+00  -1.6330486758299201e+00  -1.3570608726768771e+00  -1.0117278137694088e+00  -5.7237630155029873e-01  0.0000000000000000e+00  0.0000000000000000e+00  -7.5274690315208048e-01  -1.3553976956083233e+00  -1.8415863003181105e+00  -2.2364325352397416e+00  -2.5584443238777297e+00  -2.8214210068215273e+00  -3.0358539862682110e+00  -3.2098677669897175e+00  -3.3498364367021103e+00  -3.4607877898829407e+00  -3.5466709391536604e+00  -3.6105354141199628e+00  -3.6546515010364882e+00  -3.6805901553870588e+00  -3.6892736823987522e+00  -3.6810037959005655e+00  -3.6554705338812918e+00  -3.6117431164577196e+00  -3.5482416646828581e+00  -3.4626863032240656e+00  -3.3520170320767049e+00  -3.2122731583089648e+00  -3.0384139271010260e+00  -2.8240505479936218e+00  -2.5610415328107985e+00  -2.2388753705432092e+00  -1.8437281487070301e+00  -1.3570608726768778e+00  -7.5371342455426160e-01  0.0000000000000000e+00  0.0000000000000000e+00  -8.9526045619787309e-01  -1.6311711344261306e+00  -2.2364325352397425e+00  -2.7347162231790474e+00  -3.1449834336758165e+00  -3.4823093972992605e+00  -3.7587096648315970e+00  -3.9838103425973062e+00  -4.1653485591824158e+00  -4.3095332224601215e+00  -4.4213012604591793e+00  -4.5044982724656970e+00  -4.5620046789240725e+00  -4.5958218746858481e+00  -4.6071279472794684e+00  -4.5963089085254456e+00  -4.5629686739744697e+00  -4.5059188167675526e+00  -4.4231470760354954e+00  -4.3117613894784199e+00  -4.1679035006562106e+00  -3.9866225701275222e+00  -3.7616942657971881e+00  -3.4853642103813107e+00  -3.1479868119932832e+00  -2.7375242287025752e+00  -2.2388753705432101e+00  -1.6330486758299210e+00  -8.9633709629614489e-01  0.0000000000000000e+00  0.0000000000000000e+00  -1.0093612547441111e+00  -1.8538567621421314e+00  -2.5584443238777297e+00  -3.1449834336758160e+00  -3.6320216294140044e+00  -4.0350441902891374e+00  -4.3668847277104295e+00  -4.6381386252240171e+00  -4.8575176042777048e+00  -5.0321319503742963e+00  -5.1677063727205814e+00  -5.2687409566342751e+00  -5.3386284178534780e+00  -5.3797367333246022e+00  -5.3934637817037867e+00  -5.3802684071544942e+00  -5.3396804077856972e+00  -5.2702902598319135e+00  -5.1697177762196249e+00  -5.0345572057662569e+00  -4.8602943628508601e+00  -4.6411891519259676e+00  -4.3701144032416854e+00  -4.0383397958533953e+00  -3.6352493928868173e+00  -3.1479868119932846e+00  -2.5610415328108003e+00  -1.8558381965234050e+00  -1.0104872561523142e+00  0.0000000000000000e+00  0.0000000000000000e+00  -1.1014833085697904e+00  -2.0345474347987511e+00  -2.8214210068215251e+00  -3.4823093972992583e+00  -4.0350441902891339e+00  -4.4950614795883119e+00  -4.8755553672552230e+00  -5.1876967324942029e+00  -5.4408555703962183e+00  -5.6427987501089962e+00  -5.7998539312608139e+00  -5.9170394100983188e+00  -5.9981631571246812e+00  -6.0458950448476489e+00  -6.0618157908918500e+00  -6.0464452208602957e+00  -5.9992514177808074e+00  -5.9186412822842573e+00  -5.8019319920683969e+00  -5.6453018048631467e+00  -5.4437176085269723e+00  -5.1908356972126093e+00  -4.8788717757166786e+00  -4.4984369298623026e+00  -4.0383397958533935e+00  -3.4853642103813094e+00  -2.8240505479936195e+00  -2.0365425645078812e+00  -1.1026098797261084e+00  0.0000000000000000e+00  0.0000000000000000e+00  -1.1760380064642635e+00  -2.1812421864628266e+00  -3.0358539862682092e+00  -3.7587096648315939e+00  -4.3668847277104268e+00  -4.8755553672552239e+00  -5.2980054960041461e+00  -5.6457130138138991e+00  -5.9284683142360572e+00  -6.1544968788528651e+00  -6.3305713597338062e+00  -6.4621068259720458e+00  -6.5532372976933999e+00  -6.6068737555151182e+00  -6.6247445395556346e+00  -6.6074190885113433e+00  -6.5543156805398635e+00  -6.4636934136324573e+00  -6.3326282028556395e+00  -6.1569721465673162e+00  -5.9312953227882961e+00  -5.6488091108720555e+00  -5.3012708580483654e+00  -4.8788717757166751e+00  -4.3701144032416819e+00  -3.7616942657971828e+00  -3.0384139271010198e+00  -2.1831765125390028e+00  -1.1771251719137270e+00  0.0000000000000000e+00  0.0000000000000000e+00  -1.2362287917471808e+00  -2.2999232918987556e+00  -3.2098677669897175e+00  -3.9838103425973062e+00  -4.6381386252240180e+00  -5.1876967324942056e+00  -5.6457130138139000e+00  -6.0238013434688691e+00  -6.3320042246354902e+00  -6.5788548703075485e+00  -6.7714436422884337e+00  -6.9154803134945295e+00  -7.0153475840960668e+00  -7.0741436297143450e+00  -7.0937127302090728e+00  -7.0746636447620803e+00  -7.0163756528170929e+00  -6.9169922571071893e+00  -6.7734025690006430e+00  -6.5812104721580456e+00  -6.3346919127809045e+00  -6.0267412802031766e+00  -5.6488091108720582e+00  -5.1908356972126084e+00  -4.6411891519259632e+00  -3.9866225701275178e+00  -3.2122731583089599e+00  -2.3017351382587057e+00  -1.2372435931484829e+00  0.0000000000000000e+00  0.0000000000000000e+00  -1.2844677328348635e+00  -2.3951766895347508e+00  -3.3498364367021116e+00  -4.1653485591824193e+00  -4.8575176042777075e+00  -5.4408555703962191e+00  -5.9284683142360608e+00  -6.3320042246354928e+00  -6.6616450695799516e+00  -6.9261222412863619e+00  -7.1327459411153624e+00  -7.2874387399089411e+00  -7.3947679381847395e+00  -7.4579732409680330e+00  -7.4789876451516610e+00  -7.4584503321682210e+00  -7.3957109512161789e+00  -7.2888251103548800e+00  -7.1345412748765060e+00  -6.9282797037250319e+00  -6.6641046459592905e+00  -6.3346919127809160e+00  -5.9312953227883058e+00  -5.4437176085269776e+00  -4.8602943628508628e+00  -4.1679035006562133e+00  -3.3520170320767062e+00  -2.3968152627736243e+00  -1.2853830881867865e+00  0.0000000000000000e+00  0.0000000000000000e+00  -1.3226067507441324e+00  -2.4705636506728155e+00  -3.4607877898829411e+00  -4.3095332224601233e+00  -5.0321319503742972e+00  -5.6427987501089998e+00  -6.1544968788528704e+00  -6.5788548703075547e+00  -6.9261222412863619e+00  -7.2051524262651325e+00  -7.4234031177947433e+00  -7.5869463911163990e+00  -7.7004830047083503e+00  -7.7673569100348345e+00  -7.7895672729385872e+00  -7.7677762816919653e+00  -7.7013117863934726e+00  -7.5881644689457692e+00  -7.4249798602191612e+00  -7.2070461749706380e+00  -6.9282797037250425e+00  -6.5812104721580669e+00  -6.1569721465673384e+00  -5.6453018048631600e+00  -5.0345572057662640e+00  -4.3117613894784261e+00  -3.4626863032240696e+00  -2.4719876376100061e+00  -1.3234006616673346e+00  0.0000000000000000e+00  0.0000000000000000e+00  -1.3520742943886412e+00  -2.5288516968557349e+00  -3.5466709391536599e+00  -4.4213012604591793e+00  -5.1677063727205814e+00  -5.7998539312608175e+00  -6.3305713597338098e+00  -6.7714436422884408e+00  -7.1327459411153686e+00  -7.4234031177947459e+00  -7.6509686888054880e+00  -7.8216167950784481e+00  -7.9401419962655728e+00  -8.0099628934594236e+00  -8.0331266553862140e+00  -8.0103124644991794e+00  -7.9408327379403456e+00  -7.8226317534533285e+00  -7.6522820640943809e+00  -7.4249798602191710e+00  -7.1345412748765300e+00  -6.7734025690006714e+00  -6.3326282028556715e+00  -5.8019319920684191e+00  -5.1697177762196365e+00  -4.4231470760355052e+00  -3.5482416646828656e+00  -2.5300281942225644e+00  -1.3527292553683907e+00  0.0000000000000000e+00  0.0000000000000000e+00  -1.3739598725261604e+00  -2.5721622689775381e+00  -3.6105354141199597e+00  -4.5044982724656926e+00  -5.2687409566342707e+00  -5.9170394100983170e+00  -6.4621068259720476e+00  -6.9154803134945340e+00  -7.2874387399089438e+00  -7.5869463911163981e+00  -7.8216167950784490e+00  -7.9976913834641499e+00  -8.1200283427108655e+00  -8.1920978341291715e+00  -8.2159806356596921e+00  -8.1923681252223144e+00  -8.1205623720009541e+00  -7.9984759304566042e+00  -7.8226317534533232e+00  -7.5881644689457763e+00  -7.2888251103548987e+00  -6.9169922571072195e+00  -6.4636934136324848e+00  -5.9186412822842751e+00  -5.2702902598319197e+00  -4.5059188167675606e+00  -3.6117431164577258e+00  -2.5730659425617231e+00  -1.3744624129299927e+00  0.0000000000000000e+00  0.0000000000000000e+00  -1.3890677934683162e+00  -2.6020667712594898e+00  -3.6546515010364815e+00  -4.5620046789240645e+00  -5.3386284178534691e+00  -5.9981631571246767e+00  -6.5532372976934079e+00  -7.0153475840960793e+00  -7.3947679381847475e+00  -7.7004830047083450e+00  -7.9401419962655728e+00  -8.1200283427108673e+00  -8.2450409708613801e+00  -8.3186836123515029e+00  -8.3430592534910311e+00  -8.3188676330913740e+00  -8.2454045231627529e+00  -8.1205623720009470e+00  -7.9408327379403314e+00  -7.7013117863934726e+00  -7.3957109512161914e+00  -7.0163756528171177e+00  -6.5543156805398857e+00  -5.9992514177808216e+00  -5.3396804077857034e+00  -4.5629686739744759e+00  -3.6554705338812949e+00  -2.6026791975524328e+00  -1.3894081213971918e+00  0.0000000000000000e+00  0.0000000000000000e+00  -1.3979514955314458e+00  -2.6196488951594410e+00  -3.6805901553870486e+00  -4.5958218746858392e+00  -5.3797367333245960e+00  -6.0458950448476481e+00  -6.6068737555151209e+00  -7.0741436297143494e+00  -7.4579732409680366e+00  -7.7673569100348319e+00  -8.0099628934594218e+00  -8.1920978341291750e+00  -8.3186836123514993e+00  -8.3932431586353395e+00  -8.4178924073060646e+00  -8.3933363094095945e+00  -8.3188676330913669e+00  -8.1923681252223055e+00  -8.0103124644991652e+00  -7.7677762816919662e+00  -7.4584503321682334e+00  -7.0746636447621052e+00  -6.6074190885113682e+00  -6.0464452208603099e+00  -5.3802684071545004e+00  -4.5963089085254509e+00  -3.6810037959005681e+00  -2.6199580681329042e+00  -1.3981232318449124e+00  0.0000000000000000e+00  0.0000000000000000e+00  -1.4009347540466344e+00  -2.6255435253570902e+00  -3.6892736823987442e+00  -4.6071279472794604e+00  -5.3934637817037805e+00  -6.0618157908918509e+00  -6.6247445395556346e+00  -7.0937127302090728e+00  -7.4789876451516575e+00  -7.7895672729385801e+00  -8.0331266553862033e+00  -8.2159806356596832e+00  -8.3430592534910222e+00  -8.4178924073060575e+00  -8.4426009877164425e+00  -8.4178924073060610e+00  -8.3430592534910240e+00  -8.2159806356596778e+00  -8.0331266553862051e+00  -7.7895672729385925e+00  -7.4789876451516752e+00  -7.0937127302090968e+00  -6.6247445395556559e+00  -6.0618157908918642e+00  -5.3934637817037911e+00  -4.6071279472794719e+00  -3.6892736823987544e+00  -2.6255435253570969e+00  -1.4009347540466381e+00  0.0000000000000000e+00  0.0000000000000000e+00  -1.3981232318449093e+00  -2.6199580681328984e+00  -3.6810037959005601e+00  -4.5963089085254394e+00  -5.3802684071544871e+00  -6.0464452208602948e+00  -6.6074190885113442e+00  -7.0746636447620785e+00  -7.4584503321682130e+00  -7.7677762816919538e+00  -8.0103124644991617e+00  -8.1923681252223055e+00  -8.3188676330913633e+00  -8.3933363094095821e+00  -8.4178924073060557e+00  -8.3932431586353378e+00  -8.3186836123514940e+00  -8.1920978341291626e+00  -8.0099628934594183e+00  -7.7673569100348381e+00  -7.4579732409680464e+00  -7.0741436297143672e+00  -6.6068737555151378e+00  -6.0458950448476614e+00  -5.3797367333246084e+00  -4.5958218746858508e+00  -3.6805901553870597e+00  -2.6196488951594481e+00  -1.3979514955314489e+00  0.0000000000000000e+00  0.0000000000000000e+00  -1.3894081213971883e+00  -2.6026791975524270e+00  -3.6554705338812870e+00  -4.5629686739744653e+00  -5.3396804077856910e+00  -5.9992514177808074e+00  -6.5543156805398635e+00  -7.0163756528170884e+00  -7.3957109512161683e+00  -7.7013117863934584e+00  -7.9408327379403252e+00  -8.1205623720009417e+00  -8.2454045231627422e+00  -8.3188676330913545e+00  -8.3430592534910151e+00  -8.3186836123514958e+00  -8.2450409708613712e+00  -8.1200283427108548e+00  -7.9401419962655657e+00  -7.7004830047083574e+00  -7.3947679381847538e+00  -7.0153475840960882e+00  -6.5532372976934194e+00  -5.9981631571246927e+00  -5.3386284178534869e+00  -4.5620046789240760e+00  -3.6546515010364891e+00  -2.6020667712594943e+00  -1.3890677934683184e+00  0.0000000000000000e+00  0.0000000000000000e+00  -1.3744624129299892e+00  -2.5730659425617173e+00  -3.6117431164577170e+00  -4.5059188167675499e+00  -5.2702902598319072e+00  -5.9186412822842609e+00  -6.4636934136324626e+00  -6.9169922571071876e+00  -7.2888251103548720e+00  -7.5881644689457568e+00  -7.8226317534533116e+00  -7.9984759304565918e+00  -8.1205623720009363e+00  -8.1923681252222931e+00  -8.2159806356596690e+00  -8.1920978341291590e+00  -8.1200283427108548e+00  -7.9976913834641392e+00  -7.8216167950784454e+00  -7.5869463911164070e+00  -7.2874387399089544e+00  -6.9154803134945499e+00  -6.4621068259720662e+00  -5.9170394100983330e+00  -5.2687409566342840e+00  -4.5044982724657023e+00  -3.6105354141199646e+00  -2.5721622689775416e+00  -1.3739598725261621e+00  0.0000000000000000e+00  0.0000000000000000e+00  -1.3527292553683870e+00  -2.5300281942225582e+00  -3.5482416646828572e+00  -4.4231470760354972e+00  -5.1697177762196302e+00  -5.8019319920684049e+00  -6.3326282028556493e+00  -6.7734025690006385e+00  -7.1345412748765025e+00  -7.4249798602191515e+00  -7.6522820640943632e+00  -7.8226317534533107e+00  -7.9408327379403190e+00  -8.0103124644991510e+00  -8.0331266553861926e+00  -8.0099628934594040e+00  -7.9401419962655542e+00  -7.8216167950784374e+00  -7.6509686888054818e+00  -7.4234031177947468e+00  -7.1327459411153766e+00  -6.7714436422884594e+00  -6.3305713597338293e+00  -5.7998539312608353e+00  -5.1677063727205947e+00  -4.4213012604591881e+00  -3.5466709391536648e+00  -2.5288516968557380e+00  -1.3520742943886430e+00  0.0000000000000000e+00  0.0000000000000000e+00  -1.3234006616673319e+00  -2.4719876376100016e+00  -3.4626863032240647e+00  -4.3117613894784217e+00  -5.0345572057662604e+00  -5.6453018048631520e+00  -6.1569721465673215e+00  -6.5812104721580429e+00  -6.9282797037250248e+00  -7.2070461749706256e+00  -7.4249798602191550e+00  -7.5881644689457604e+00  -7.7013117863934522e+00  -7.7677762816919484e+00  -7.7895672729385748e+00  -7.7673569100348239e+00  -7.7004830047083397e+00  -7.5869463911163910e+00  -7.4234031177947415e+00  -7.2051524262651405e+00  -6.9261222412863779e+00  -6.5788548703075822e+00  -6.1544968788528935e+00  -5.6427987501090158e+00  -5.0321319503743069e+00  -4.3095332224601304e+00  -3.4607877898829473e+00  -2.4705636506728199e+00  -1.3226067507441353e+00  0.0000000000000000e+00  0.0000000000000000e+00  -1.2853830881867847e+00  -2.3968152627736230e+00  -3.3520170320767049e+00  -4.1679035006562097e+00  -4.8602943628508601e+00  -5.4437176085269732e+00  -5.9312953227882979e+00  -6.3346919127809045e+00  -6.6641046459592772e+00  -6.9282797037250248e+00  -7.1345412748765087e+00  -7.2888251103548809e+00  -7.3957109512161709e+00  -7.4584503321682147e+00  -7.4789876451516575e+00  -7.4579732409680330e+00  -7.3947679381847378e+00  -7.2874387399089384e+00  -7.1327459411153642e+00  -6.9261222412863752e+00  -6.6616450695799694e+00  -6.3320042246355168e+00  -5.9284683142360812e+00  -5.4408555703962334e+00  -4.8575176042777191e+00  -4.1653485591824291e+00  -3.3498364367021169e+00  -2.3951766895347548e+00  -1.2844677328348653e+00  0.0000000000000000e+00  0.0000000000000000e+00  -1.2372435931484822e+00  -2.3017351382587048e+00  -3.2122731583089612e+00  -3.9866225701275169e+00  -4.6411891519259623e+00  -5.1908356972126066e+00  -5.6488091108720520e+00  -6.0267412802031677e+00  -6.3346919127809009e+00  -6.5812104721580464e+00  -6.7734025690006474e+00  -6.9169922571071982e+00  -7.0163756528170937e+00  -7.0746636447620821e+00  -7.0937127302090754e+00  -7.0741436297143467e+00  -7.0153475840960677e+00  -6.9154803134945286e+00  -6.7714436422884372e+00  -6.5788548703075636e+00  -6.3320042246355088e+00  -6.0238013434688922e+00  -5.6457130138139195e+00  -5.1876967324942163e+00  -4.6381386252240269e+00  -3.9838103425973146e+00  -3.2098677669897220e+00  -2.2999232918987591e+00  -1.2362287917471828e+00  0.0000000000000000e+00  0.0000000000000000e+00  -1.1771251719137252e+00  -2.1831765125390001e+00  -3.0384139271010189e+00  -3.7616942657971806e+00  -4.3701144032416783e+00  -4.8788717757166742e+00  -5.3012708580483565e+00  -5.6488091108720440e+00  -5.9312953227882890e+00  -6.1569721465673197e+00  -6.3326282028556538e+00  -6.4636934136324671e+00  -6.5543156805398635e+00  -6.6074190885113451e+00  -6.6247445395556355e+00  -6.6068737555151174e+00  -6.5532372976933999e+00  -6.4621068259720422e+00  -6.3305713597338045e+00  -6.1544968788528731e+00  -5.9284683142360688e+00  -5.6457130138139169e+00  -5.2980054960041585e+00  -4.8755553672552292e+00  -4.3668847277104321e+00  -3.7587096648315996e+00  -3.0358539862682123e+00  -2.1812421864628289e+00  -1.1760380064642646e+00  0.0000000000000000e+00  0.0000000000000000e+00  -1.1026098797261070e+00  -2.0365425645078790e+00  -2.8240505479936173e+00  -3.4853642103813063e+00  -4.0383397958533909e+00  -4.4984369298622982e+00  -4.8788717757166689e+00  -5.1908356972125977e+00  -5.4437176085269634e+00  -5.6453018048631458e+00  -5.8019319920684040e+00  -5.9186412822842618e+00  -5.9992514177808065e+00  -6.0464452208602948e+00  -6.0618157908918491e+00  -6.0458950448476454e+00  -5.9981631571246776e+00  -5.9170394100983135e+00  -5.7998539312608131e+00  -5.6427987501090007e+00  -5.4408555703962245e+00  -5.1876967324942163e+00  -4.8755553672552319e+00  -4.4950614795883155e+00  -4.0350441902891374e+00  -3.4823093972992605e+00  -2.8214210068215264e+00  -2.0345474347987511e+00  -1.1014833085697906e+00  0.0000000000000000e+00  0.0000000000000000e+00  -1.0104872561523124e+00  -1.8558381965234021e+00  -2.5610415328107967e+00  -3.1479868119932806e+00  -3.6352493928868137e+00  -4.0383397958533909e+00  -4.3701144032416765e+00  -4.6411891519259569e+00  -4.8602943628508530e+00  -5.0345572057662551e+00  -5.1697177762196294e+00  -5.2702902598319108e+00  -5.3396804077856945e+00  -5.3802684071544924e+00  -5.3934637817037858e+00  -5.3797367333245978e+00  -5.3386284178534735e+00  -5.2687409566342698e+00  -5.1677063727205805e+00  -5.0321319503742989e+00  -4.8575176042777155e+00  -4.6381386252240260e+00  -4.3668847277104348e+00  -4.0350441902891