<?xml version="1.0"?>
<VTKFile type="UnstructuredGrid"  version="0.1"  >
<UnstructuredGrid>
<Piece  NumberOfPoints="961" NumberOfCells="1800">
<Points>
<DataArray  type="Float64"  NumberOfComponents="3"  format="ascii">-2 -2 0  -1.866666666666667 -2 0  -1.733333333333333 -2 0  -1.6 -2 0  -1.466666666666667 -2 0  -1.333333333333333 -2 0  -1.2 -2 0  -1.066666666666667 -2 0  -0.9333333333333333 -2 0  -0.8 -2 0  -0.6666666666666667 -2 0  -0.5333333333333334 -2 0  -0.3999999999999999 -2 0  -0.2666666666666666 -2 0  -0.1333333333333333 -2 0  0 -2 0  0.1333333333333333 -2 0  0.2666666666666666 -2 0  0.3999999999999999 -2 0  0.5333333333333332 -2 0  0.6666666666666665 -2 0  0.7999999999999998 -2 0  0.9333333333333331 -2 0  1.066666666666667 -2 0  1.2 -2 0  1.333333333333333 -2 0  1.466666666666667 -2 0  1.6 -2 0  1.733333333333333 -2 0  1.866666666666667 -2 0  2 -2 0  -2 -1.866666666666667 0  -1.866666666666667 -1.866666666666667 0  -1.733333333333333 -1.866666666666667 0  -1.6 -1.866666666666667 0  -1.466666666666667 -1.866666666666667 0  -1.333333333333333 -1.866666666666667 0  -1.2 -1.866666666666667 0  -1.066666666666667 -1.866666666666667 0  -0.9333333333333333 -1.866666666666667 0  -0.8 -1.866666666666667 0  -0.6666666666666667 -1.866666666666667 0  -0.5333333333333334 -1.866666666666667 0  -0.3999999999999999 -1.866666666666667 0  -0.2666666666666666 -1.866666666666667 0  -0.1333333333333333 -1.866666666666667 0  0 -1.866666666666667 0  0.1333333333333333 -1.866666666666667 0  0.2666666666666666 -1.866666666666667 0  0.3999999999999999 -1.866666666666667 0  0.5333333333333332 -1.866666666666667 0  0.6666666666666665 -1.866666666666667 0  0.7999999999999998 -1.866666666666667 0  0.9333333333333331 -1.866666666666667 0  1.066666666666667 -1.866666666666667 0  1.2 -1.866666666666667 0  1.333333333333333 -1.866666666666667 0  1.466666666666667 -1.866666666666667 0  1.6 -1.866666666666667 0  1.733333333333333 -1.866666666666667 0  1.866666666666667 -1.866666666666667 0  2 -1.866666666666667 0  -2 -1.733333333333333 0  -1.866666666666667 -1.733333333333333 0  -1.733333333333333 -1.733333333333333 0  -1.6 -1.733333333333333 0  -1.466666666666667 -1.733333333333333 0  -1.333333333333333 -1.733333333333333 0  -1.2 -1.733333333333333 0  -1.066666666666667 -1.733333333333333 0  -0.9333333333333333 -1.733333333333333 0  -0.8 -1.733333333333333 0  -0.6666666666666667 -1.733333333333333 0  -0.5333333333333334 -1.733333333333333 0  -0.3999999999999999 -1.733333333333333 0  -0.2666666666666666 -1.733333333333333 0  -0.1333333333333333 -1.733333333333333 0  0 -1.733333333333333 0  0.1333333333333333 -1.733333333333333 0  0.2666666666666666 -1.733333333333333 0  0.3999999999999999 -1.733333333333333 0  0.5333333333333332 -1.733333333333333 0  0.6666666666666665 -1.733333333333333 0  0.7999999999999998 -1.733333333333333 0  0.9333333333333331 -1.733333333333333 0  1.066666666666667 -1.733333333333333 0  1.2 -1.733333333333333 0  1.333333333333333 -1.733333333333333 0  1.466666666666667 -1.733333333333333 0  1.6 -1.733333333333333 0  1.733333333333333 -1.733333333333333 0  1.866666666666667 -1.733333333333333 0  2 -1.733333333333333 0  -2 -1.6 0  -1.866666666666667 -1.6 0  -1.733333333333333 -1.6 0  -1.6 -1.6 0  -1.466666666666667 -1.6 0  -1.333333333333333 -1.6 0  -1.2 -1.6 0  -1.066666666666667 -1.6 0  -0.9333333333333333 -1.6 0  -0.8 -1.6 0  -0.6666666666666667 -1.6 0  -0.5333333333333334 -1.6 0  -0.3999999999999999 -1.6 0  -0.2666666666666666 -1.6 0  -0.1333333333333333 -1.6 0  0 -1.6 0  0.1333333333333333 -1.6 0  0.2666666666666666 -1.6 0  0.3999999999999999 -1.6 0  0.5333333333333332 -1.6 0  0.6666666666666665 -1.6 0  0.7999999999999998 -1.6 0  0.9333333333333331 -1.6 0  1.066666666666667 -1.6 0  1.2 -1.6 0  1.333333333333333 -1.6 0  1.466666666666667 -1.6 0  1.6 -1.6 0  1.733333333333333 -1.6 0  1.866666666666667 -1.6 0  2 -1.6 0  -2 -1.466666666666667 0  -1.866666666666667 -1.466666666666667 0  -1.733333333333333 -1.466666666666667 0  -1.6 -1.466666666666667 0  -1.466666666666667 -1.466666666666667 0  -1.333333333333333 -1.466666666666667 0  -1.2 -1.466666666666667 0  -1.066666666666667 -1.466666666666667 0  -0.9333333333333333 -1.466666666666667 0  -0.8 -1.466666666666667 0  -0.6666666666666667 -1.466666666666667 0  -0.5333333333333334 -1.466666666666667 0  -0.3999999999999999 -1.466666666666667 0  -0.2666666666666666 -1.466666666666667 0  -0.1333333333333333 -1.466666666666667 0  0 -1.466666666666667 0  0.1333333333333333 -1.466666666666667 0  0.2666666666666666 -1.466666666666667 0  0.3999999999999999 -1.466666666666667 0  0.5333333333333332 -1.466666666666667 0  0.6666666666666665 -1.466666666666667 0  0.7999999999999998 -1.466666666666667 0  0.9333333333333331 -1.466666666666667 0  1.066666666666667 -1.466666666666667 0  1.2 -1.466666666666667 0  1.333333333333333 -1.466666666666667 0  1.466666666666667 -1.466666666666667 0  1.6 -1.466666666666667 0  1.733333333333333 -1.466666666666667 0  1.866666666666667 -1.466666666666667 0  2 -1.466666666666667 0  -2 -1.333333333333333 0  -1.866666666666667 -1.333333333333333 0  -1.733333333333333 -1.333333333333333 0  -1.6 -1.333333333333333 0  -1.466666666666667 -1.333333333333333 0  -1.333333333333333 -1.333333333333333 0  -1.2 -1.333333333333333 0  -1.066666666666667 -1.333333333333333 0  -0.9333333333333333 -1.333333333333333 0  -0.8 -1.333333333333333 0  -0.6666666666666667 -1.333333333333333 0  -0.5333333333333334 -1.333333333333333 0  -0.3999999999999999 -1.333333333333333 0  -0.2666666666666666 -1.333333333333333 0  -0.1333333333333333 -1.333333333333333 0  0 -1.333333333333333 0  0.1333333333333333 -1.333333333333333 0  0.2666666666666666 -1.333333333333333 0  0.3999999999999999 -1.333333333333333 0  0.5333333333333332 -1.333333333333333 0  0.6666666666666665 -1.333333333333333 0  0.7999999999999998 -1.333333333333333 0  0.9333333333333331 -1.333333333333333 0  1.066666666666667 -1.333333333333333 0  1.2 -1.333333333333333 0  1.333333333333333 -1.333333333333333 0  1.466666666666667 -1.333333333333333 0  1.6 -1.333333333333333 0  1.733333333333333 -1.333333333333333 0  1.866666666666667 -1.333333333333333 0  2 -1.333333333333333 0  -2 -1.2 0  -1.866666666666667 -1.2 0  -1.733333333333333 -1.2 0  -1.6 -1.2 0  -1.466666666666667 -1.2 0  -1.333333333333333 -1.2 0  -1.2 -1.2 0  -1.066666666666667 -1.2 0  -0.9333333333333333 -1.2 0  -0.8 -1.2 0  -0.6666666666666667 -1.2 0  -0.5333333333333334 -1.2 0  -0.3999999999999999 -1.2 0  -0.2666666666666666 -1.2 0  -0.1333333333333333 -1.2 0  0 -1.2 0  0.1333333333333333 -1.2 0  0.2666666666666666 -1.2 0  0.3999999999999999 -1.2 0  0.5333333333333332 -1.2 0  0.6666666666666665 -1.2 0  0.7999999999999998 -1.2 0  0.9333333333333331 -1.2 0  1.066666666666667 -1.2 0  1.2 -1.2 0  1.333333333333333 -1.2 0  1.466666666666667 -1.2 0  1.6 -1.2 0  1.733333333333333 -1.2 0  1.866666666666667 -1.2 0  2 -1.2 0  -2 -1.066666666666667 0  -1.866666666666667 -1.066666666666667 0  -1.733333333333333 -1.066666666666667 0  -1.6 -1.066666666666667 0  -1.466666666666667 -1.066666666666667 0  -1.333333333333333 -1.066666666666667 0  -1.2 -1.066666666666667 0  -1.066666666666667 -1.066666666666667 0  -0.9333333333333333 -1.066666666666667 0  -0.8 -1.066666666666667 0  -0.6666666666666667 -1.066666666666667 0  -0.5333333333333334 -1.066666666666667 0  -0.3999999999999999 -1.066666666666667 0  -0.2666666666666666 -1.066666666666667 0  -0.1333333333333333 -1.066666666666667 0  0 -1.066666666666667 0  0.1333333333333333 -1.066666666666667 0  0.2666666666666666 -1.066666666666667 0  0.3999999999999999 -1.066666666666667 0  0.5333333333333332 -1.066666666666667 0  0.6666666666666665 -1.066666666666667 0  0.7999999999999998 -1.066666666666667 0  0.9333333333333331 -1.066666666666667 0  1.066666666666667 -1.066666666666667 0  1.2 -1.066666666666667 0  1.333333333333333 -1.066666666666667 0  1.466666666666667 -1.066666666666667 0  1.6 -1.066666666666667 0  1.733333333333333 -1.066666666666667 0  1.866666666666667 -1.066666666666667 0  2 -1.066666666666667 0  -2 -0.9333333333333333 0  -1.866666666666667 -0.9333333333333333 0  -1.733333333333333 -0.9333333333333333 0  -1.6 -0.9333333333333333 0  -1.466666666666667 -0.9333333333333333 0  -1.333333333333333 -0.9333333333333333 0  -1.2 -0.9333333333333333 0  -1.066666666666667 -0.9333333333333333 0  -0.9333333333333333 -0.9333333333333333 0  -0.8 -0.9333333333333333 0  -0.6666666666666667 -0.9333333333333333 0  -0.5333333333333334 -0.9333333333333333 0  -0.3999999999999999 -0.9333333333333333 0  -0.2666666666666666 -0.9333333333333333 0  -0.1333333333333333 -0.9333333333333333 0  0 -0.9333333333333333 0  0.1333333333333333 -0.9333333333333333 0  0.2666666666666666 -0.9333333333333333 0  0.3999999999999999 -0.9333333333333333 0  0.5333333333333332 -0.9333333333333333 0  0.6666666666666665 -0.9333333333333333 0  0.7999999999999998 -0.9333333333333333 0  0.9333333333333331 -0.9333333333333333 0  1.066666666666667 -0.9333333333333333 0  1.2 -0.9333333333333333 0  1.333333333333333 -0.9333333333333333 0  1.466666666666667 -0.9333333333333333 0  1.6 -0.9333333333333333 0  1.733333333333333 -0.9333333333333333 0  1.866666666666667 -0.9333333333333333 0  2 -0.9333333333333333 0  -2 -0.8 0  -1.866666666666667 -0.8 0  -1.733333333333333 -0.8 0  -1.6 -0.8 0  -1.466666666666667 -0.8 0  -1.333333333333333 -0.8 0  -1.2 -0.8 0  -1.066666666666667 -0.8 0  -0.9333333333333333 -0.8 0  -0.8 -0.8 0  -0.6666666666666667 -0.8 0  -0.5333333333333334 -0.8 0  -0.3999999999999999 -0.8 0  -0.2666666666666666 -0.8 0  -0.1333333333333333 -0.8 0  0 -0.8 0  0.1333333333333333 -0.8 0  0.2666666666666666 -0.8 0  0.3999999999999999 -0.8 0  0.5333333333333332 -0.8 0  0.6666666666666665 -0.8 0  0.7999999999999998 -0.8 0  0.9333333333333331 -0.8 0  1.066666666666667 -0.8 0  1.2 -0.8 0  1.333333333333333 -0.8 0  1.466666666666667 -0.8 0  1.6 -0.8 0  1.733333333333333 -0.8 0  1.866666666666667 -0.8 0  2 -0.8 0  -2 -0.6666666666666667 0  -1.866666666666667 -0.
[...]
<PointData  Scalars="f_8002"> 
<DataArray  type="Float64"  Name="f_8002"  format="ascii">0.0000000000000000e+00  0.0000000000000000e+00  0.0000000000000000e+00  0.0000000000000000e+00  0.0000000000000000e+00  0.0000000000000000e+00  0.0000000000000000e+00  0.0000000000000000e+00  0.0000000000000000e+00  0.0000000000000000e+00  0.0000000000000000e+00  0.0000000000000000e+00  0.0000000000000000e+00  0.0000000000000000e+00  0.0000000000000000e+00  0.0000000000000000e+00  0.0000000000000000e+00  0.0000000000000000e+00  0.0000000000000000e+00  0.0000000000000000e+00  0.0000000000000000e+00  0.0000000000000000e+00  0.0000000000000000e+00  0.0000000000000000e+00  0.0000000000000000e+00  0.0000000000000000e+00  0.0000000000000000e+00  0.0000000000000000e+00  0.0000000000000000e+00  0.0000000000000000e+00  0.0000000000000000e+00  0.0000000000000000e+00  -3.5437367105281181e-01  -6.1308441378021883e-01  -8.1434360280456286e-01  -9.7625601441207388e-01  -1.1088315052661841e+00  -1.2183032865654844e+00  -1.3088961161926256e+00  -1.3836431994913245e+00  -1.4448043963146862e+00  -1.4940986056662562e+00  -1.5328412035868684e+00  -1.5620290265527841e+00  -1.5823943365020861e+00  -1.5944392328133978e+00  -1.5984568701459037e+00  -1.5945430062477315e+00  -1.5825996637934245e+00  -1.5623314517599205e+00  -1.5332339987917352e+00  -1.4945727118968790e+00  -1.4453483324683856e+00  -1.3842429243038945e+00  -1.3095348170590690e+00  -1.2189610481699478e+00  -1.1094847696791559e+00  -9.7687665579765959e-01  -8.1489723186705731e-01  -6.1352698530443606e-01  -3.5464389619566133e-01  0.0000000000000000e+00  0.0000000000000000e+00  -6.1308441378021905e-01  -1.0928642099319947e+00  -1.4778331504259274e+00  -1.7921831672902631e+00  -2.0516099185750161e+00  -2.2668061217741746e+00  -2.4453992258153696e+00  -2.5930326782237856e+00  -2.7139895208393248e+00  -2.8115663279085132e+00  -2.8883056264824618e+00  -2.9461444570372888e+00  -2.9865108617365399e+00  -3.0103863671027433e+00  -3.0183449077361661e+00  -3.0105741448738490e+00  -2.9868822466182277e+00  -2.9466910754149538e+00  -2.8890148336352035e+00  -2.8124210959596319e+00  -2.7149682682234126e+00  -2.5941090156591460e+00  -2.4465415763248761e+00  -2.2679771419345562e+00  -2.0527655932948452e+00  -1.7932713476333602e+00  -1.4787911066331265e+00  -1.0936143953227129e+00  -6.1352698530443617e-01  0.0000000000000000e+00  0.0000000000000000e+00  -8.1434360280456286e-01  -1.4778331504259274e+00  -2.0234270399366157e+00  -2.4755868638820524e+00  -2.8521891743199079e+00  -3.1664374905694985e+00  -3.4282703392651146e+00  -3.6453082773508392e+00  -3.8234749675503559e+00  -3.9674046189301237e+00  -4.0807118061056071e+00  -4.1661718801526861e+00  -4.2258419610810014e+00  -4.2611410805046877e+00  -4.2729008824461649e+00  -4.2613936605442078e+00  -4.2263413159726566e+00  -4.1669063553226229e+00  -4.0816638049713330e+00  -3.9685504524390458e+00  -3.8247846291321288e+00  -3.6467451154311368e+00  -3.4297905821128372e+00  -3.1679895506751823e+00  -2.8537126157141239e+00  -2.4770108478018922e+00  -2.0246679665937481e+00  -1.4787911066331270e+00  -8.1489723186705765e-01  0.0000000000000000e+00  0.0000000000000000e+00  -9.7625601441207355e-01  -1.7921831672902626e+00  -2.4755868638820511e+00  -3.0492686989506441e+00  -3.5313568267072601e+00  -3.9361410739534728e+00  -4.2749085962484505e+00  -4.5566217631153565e+00  -4.7884245539404615e+00  -4.9760076187364923e+00  -5.1238673932110759e+00  -5.2354884601556968e+00  -5.3134705487299811e+00  -5.3596149829442759e+00  -5.3749804187657686e+00  -5.3599140378850265e+00  -5.3140615716424326e+00  -5.2363572259132143e+00  -5.1249924321850431e+00  -4.9773600465726648e+00  -4.7899678223167301e+00  -4.5583113072366093e+00  -4.2766913418300323e+00  -3.9379547483246844e+00  -3.5331289950251343e+00  -3.0509154203903175e+00  -2.4770108478018926e+00  -1.7932713476333602e+00  -9.7687665579765981e-01  0.0000000000000000e+00  0.0000000000000000e+00  -1.1088315052661832e+00  -2.0516099185750147e+00  -2.8521891743199062e+00  -3.5313568267072593e+00  -4.1066346922463257e+00  -4.5925415371349354e+00  -5.0010149132811854e+00  -5.3418338494609463e+00  -5.6229806121725989e+00  -5.8509281684846135e+00  -6.0308595492461636e+00  -6.1668308876724867e+00  -6.2618897078820099e+00  -6.3181579105888890e+00  -6.3368864279357782e+00  -6.3184862296904578e+00  -6.2625383524781482e+00  -6.1677838175125226e+00  -6.0320925683643969e+00  -5.8524087536066460e+00  -5.6246676676669303e+00  -5.3436773721422037e+00  -5.0029555432265349e+00  -4.5945099628568933e+00  -4.1085508726532618e+00  -3.5331289950251339e+00  -2.8537126157141239e+00  -2.0527655932948456e+00  -1.1094847696791563e+00  0.0000000000000000e+00  0.0000000000000000e+00  -1.2183032865654824e+00  -2.2668061217741711e+00  -3.1664374905694941e+00  -3.9361410739534684e+00  -4.5925415371349327e+00  -5.1499380096943455e+00  -5.6204706954575698e+00  -6.0143504278122890e+00  -6.3400894049027903e+00  -6.6047050653474360e+00  -6.8138881011862322e+00  -6.9721347441173718e+00  -7.0828470111508581e+00  -7.1484053425265888e+00  -7.1702175528419287e+00  -7.1487470141232192e+00  -7.0835218373297710e+00  -6.9731256404383908e+00  -6.8151693133156135e+00  -6.6062420110496056e+00  -6.3418384548722839e+00  -6.0162586174272690e+00  -5.6224753576802167e+00  -5.1519663194584568e+00  -4.5945099628568924e+00  -3.9379547483246817e+00  -3.1679895506751787e+00  -2.2679771419345545e+00  -1.2189610481699471e+00  0.0000000000000000e+00  0.0000000000000000e+00  -1.3088961161926242e+00  -2.4453992258153665e+00  -3.4282703392651124e+00  -4.2749085962484461e+00  -5.0010149132811827e+00  -5.6204706954575707e+00  -6.1453597546727181e+00  -6.5860668127944493e+00  -6.9514055328779740e+00  -7.2487480557688286e+00  -7.4841417336393947e+00  -7.6624071478339992e+00  -7.7872160138272823e+00  -7.8611496525610693e+00  -7.8857393905094231e+00  -7.8614901955269261e+00  -7.7878884370266839e+00  -7.6633940812720684e+00  -7.4854170107596403e+00  -7.2502765789392152e+00  -6.9531430931811329e+00  -6.5879598641685044e+00  -6.1473451443728173e+00  -5.6224753576802105e+00  -5.0029555432265296e+00  -4.2766913418300270e+00  -3.4297905821128323e+00  -2.4465415763248717e+00  -1.3095348170590670e+00  0.0000000000000000e+00  0.0000000000000000e+00  -1.3836431994913241e+00  -2.5930326782237856e+00  -3.6453082773508401e+00  -4.5566217631153556e+00  -5.3418338494609445e+00  -6.0143504278122899e+00  -6.5860668127944475e+00  -7.0673826110928841e+00  -7.4672553916900632e+00  -7.7932704696255906e+00  -8.0517125077642646e+00  -8.2476308567216421e+00  -8.3848945933554422e+00  -8.4662355792830652e+00  -8.4932790839562262e+00  -8.4665620328826616e+00  -8.3855390521469069e+00  -8.2485763870895017e+00  -8.0529336182518101e+00  -7.7947330045643213e+00  -7.4689163947401687e+00  -7.0691901647737536e+00  -6.5879598641685053e+00  -6.0162586174272645e+00  -5.3436773721421975e+00  -4.5583113072366022e+00  -3.6467451154311306e+00  -2.5941090156591420e+00  -1.3842429243038918e+00  0.0000000000000000e+00  0.0000000000000000e+00  -1.4448043963146862e+00  -2.7139895208393248e+00  -3.8234749675503572e+00  -4.7884245539404633e+00  -5.6229806121725989e+00  -6.3400894049027885e+00  -6.9514055328779740e+00  -7.4672553916900659e+00  -7.8966395241898271e+00  -8.2472572550455627e+00  -8.5255415012784201e+00  -8.7366956882705864e+00  -8.8847277706145249e+00  -8.9724784620809519e+00  -9.0016421110739575e+00  -8.9727794434051500e+00  -8.8853218314311864e+00  -8.7375669963876739e+00  -8.5266662389065573e+00  -8.2486035407063536e+00  -7.8981673181509189e+00  -7.4689163947401811e+00  -6.9531430931811435e+00  -6.3418384548722884e+00  -5.6246676676669312e+00  -4.7899678223167301e+00  -3.8247846291321284e+00  -2.7149682682234122e+00  -1.4453483324683856e+00  0.0000000000000000e+00  0.0000000000000000e+00  -1.4940986056662555e+00  -2.8115663279085124e+00  -3.9674046189301246e+00  -4.9760076187364932e+00  -5.8509281684846153e+00  -6.6047050653474368e+00  -7.2487480557688295e+00  -7.7932704696255923e+00  -8.2472572550455645e+00  -8.6184569052317261e+00  -8.9133878319175661e+00  -9.1373520913723336e+00  -9.2944514685836488e+00  -9.3876025823987721e+00  -9.4185488893298039e+00  -9.3878683197511226e+00  -9.2949758844105155e+00  -9.1381210471778687e+00  -8.9143800703744080e+00  -8.6196439972354106e+00  -8.2486035407063660e+00  -7.7947330045643461e+00  -7.2502765789392409e+00  -6.6062420110496216e+00  -5.8524087536066514e+00  -4.9773600465726702e+00  -3.9685504524390494e+00  -2.8124210959596350e+00  -1.4945727118968810e+00  0.0000000000000000e+00  0.0000000000000000e+00  -1.5328412035868682e+00  -2.8883056264824614e+00  -4.0807118061056080e+00  -5.1238673932110759e+00  -6.0308595492461610e+00  -6.8138881011862349e+00  -7.4841417336393974e+00  -8.0517125077642699e+00  -8.5255415012784290e+00  -8.9133878319175697e+00  -9.2218139915378892e+00  -9.4561816261812552e+00  -9.6206532190554608e+00  -9.7181963430162828e+00  -9.7505881635714662e+00  -9.7184186924386697e+00  -9.6210919563264099e+00  -9.4568248140616546e+00  -9.2226436912617906e+00  -8.9143800703744205e+00  -8.5266662389065804e+00  -8.0529336182518385e+00  -7.4854170107596696e+00  -6.8151693133156348e+00  -6.0320925683644084e+00  -5.1249924321850511e+00  -4.0816638049713410e+00  -2.8890148336352102e+00  -1.5332339987917392e+00  0.0000000000000000e+00  0.0000000000000000e+00  -1.5620290265527834e+00  -2.9461444570372866e+00  -4.1661718801526826e+00  -5.2354884601556897e+00  -6.1668308876724760e+00  -6.9721347441173682e+00  -7.6624071478340010e+00  -8.2476308567216439e+00  -8.7366956882705864e+00  -9.1373520913723336e+00  -9.4561816261812499e+00  -9.6985796047335278e+00  -9.8687459152582324e+00  -9.9696808990230501e+00  -1.0003183962725727e+01  -9.9698533498712862e+00  -9.8690861605180000e+00  -9.6990783226670683e+00  -9.4568248140616511e+00  -9.1381210471778758e+00  -8.7375669963876916e+00  -8.2485763870895319e+00  -7.6633940812721022e+00  -6.9731256404384094e+00  -6.1677838175125261e+00  -5.2363572259132214e+00  -4.1669063553226291e+00  -2.9466910754149596e+00  -1.5623314517599241e+00  0.0000000000000000e+00  0.0000000000000000e+00  -1.5823943365020858e+00  -2.9865108617365363e+00  -4.2258419610809934e+00  -5.3134705487299723e+00  -6.2618897078819966e+00  -7.0828470111508484e+00  -7.7872160138272806e+00  -8.3848945933554493e+00  -8.8847277706145320e+00  -9.2944514685836470e+00  -9.6206532190554537e+00  -9.8687459152582218e+00  -1.0042951126405637e+01  -1.0146289080407053e+01  -1.0180573076879002e+01  -1.0146406754649442e+01  -1.0043183281775940e+01  -9.8690861605179911e+00  -9.6210919563263939e+00  -9.2949758844105137e+00  -8.8853218314311988e+00  -8.3855390521469335e+00  -7.7878884370267070e+00  -7.0835218373297852e+00  -6.2625383524781570e+00  -5.3140615716424371e+00  -4.2263413159726619e+00  -2.9868822466182321e+00  -1.5825996637934270e+00  0.0000000000000000e+00  0.0000000000000000e+00  -1.5944392328133972e+00  -3.0103863671027375e+00  -4.2611410805046743e+00  -5.3596149829442652e+00  -6.3181579105888765e+00  -7.1484053425265799e+00  -7.8611496525610649e+00  -8.4662355792830652e+00  -8.9724784620809608e+00  -9.3876025823987668e+00  -9.7181963430162721e+00  -9.9696808990230412e+00  -1.0146289080407048e+01  -1.0251051887691037e+01  -1.0285790399256179e+01  -1.0251111536471914e+01  -1.0146406754649433e+01  -9.9698533498712720e+00  -9.7184186924386537e+00  -9.3878683197511190e+00  -8.9727794434051606e+00  -8.4665620328826865e+00  -7.8614901955269518e+00  -7.1487470141232334e+00  -6.3184862296904658e+00  -5.3599140378850318e+00  -4.2613936605442122e+00  -3.0105741448738526e+00  -1.5945430062477339e+00  0.0000000000000000e+00  0.0000000000000000e+00  -1.5984568701459008e+00  -3.0183449077361586e+00  -4.2729008824461507e+00  -5.3749804187657535e+00  -6.3368864279357666e+00  -7.1702175528419225e+00  -7.8857393905094151e+00  -8.4932790839562173e+00  -9.0016421110739469e+00  -9.4185488893297933e+00  -9.7505881635714466e+00  -1.0003183962725714e+01  -1.0180573076878991e+01  -1.0285790399256168e+01  -1.0320660001550648e+01  -1.0285790399256168e+01  -1.0180573076878989e+01  -1.0003183962725707e+01  -9.7505881635714502e+00  -9.4185488893298057e+00  -9.0016421110739664e+00  -8.4932790839562422e+00  -7.8857393905094391e+00  -7.1702175528419412e+00  -6.3368864279357844e+00  -5.3749804187657739e+00  -4.2729008824461649e+00  -3.0183449077361684e+00  -1.5984568701459057e+00  0.0000000000000000e+00  0.0000000000000000e+00  -1.5945430062477284e+00  -3.0105741448738428e+00  -4.2613936605441989e+00  -5.3599140378850150e+00  -6.3184862296904436e+00  -7.1487470141232103e+00  -7.8614901955269172e+00  -8.4665620328826510e+00  -8.9727794434051305e+00  -9.3878683197511030e+00  -9.7184186924386484e+00  -9.9698533498712703e+00  -1.0146406754649425e+01  -1.0251111536471898e+01  -1.0285790399256165e+01  -1.0251051887691027e+01  -1.0146289080407033e+01  -9.9696808990230288e+00  -9.7181963430162668e+00  -9.3876025823987721e+00  -8.9724784620809643e+00  -8.4662355792830866e+00  -7.8611496525610871e+00  -7.1484053425265959e+00  -6.3181579105888925e+00  -5.3596149829442812e+00  -4.2611410805046894e+00  -3.0103863671027455e+00  -1.5944392328134012e+00  0.0000000000000000e+00  0.0000000000000000e+00  -1.5825996637934210e+00  -2.9868822466182214e+00  -4.2263413159726477e+00  -5.3140615716424202e+00  -6.2625383524781348e+00  -7.0835218373297595e+00  -7.7878884370266768e+00  -8.3855390521468927e+00  -8.8853218314311651e+00  -9.2949758844104906e+00  -9.6210919563263815e+00  -9.8690861605179823e+00  -1.0043183281775921e+01  -1.0146406754649421e+01  -1.0180573076878980e+01  -1.0146289080407033e+01  -1.0042951126405619e+01  -9.8687459152582093e+00  -9.6206532190554448e+00  -9.2944514685836470e+00  -8.8847277706145356e+00  -8.3848945933554617e+00  -7.7872160138272948e+00  -7.0828470111508652e+00  -6.2618897078820153e+00  -5.3134705487299900e+00  -4.2258419610810058e+00  -2.9865108617365430e+00  -1.5823943365020885e+00  0.0000000000000000e+00  0.0000000000000000e+00  -1.5623314517599181e+00  -2.9466910754149489e+00  -4.1669063553226149e+00  -5.2363572259132036e+00  -6.1677838175125066e+00  -6.9731256404383837e+00  -7.6633940812720622e+00  -8.2485763870894910e+00  -8.7375669963876561e+00  -9.1381210471778473e+00  -9.4568248140616316e+00  -9.6990783226670487e+00  -9.8690861605179698e+00  -9.9698533498712560e+00  -1.0003183962725696e+01  -9.9696808990230235e+00  -9.8687459152582058e+00  -9.6985796047335118e+00  -9.4561816261812393e+00  -9.1373520913723318e+00  -8.7366956882705917e+00  -8.2476308567216599e+00  -7.6624071478340126e+00  -6.9721347441173807e+00  -6.1668308876724929e+00  -5.2354884601557021e+00  -4.1661718801526906e+00  -2.9461444570372914e+00  -1.5620290265527854e+00  0.0000000000000000e+00  0.0000000000000000e+00  -1.5332339987917334e+00  -2.8890148336351991e+00  -4.0816638049713259e+00  -5.1249924321850369e+00  -6.0320925683643916e+00  -6.8151693133156117e+00  -7.4854170107596367e+00  -8.0529336182518012e+00  -8.5266662389065484e+00  -8.9143800703743921e+00  -9.2226436912617640e+00  -9.4568248140616298e+00  -9.6210919563263690e+00  -9.7184186924386360e+00  -9.7505881635714307e+00  -9.7181963430162508e+00  -9.6206532190554324e+00  -9.4561816261812304e+00  -9.2218139915378750e+00  -8.9133878319175643e+00  -8.5255415012784308e+00  -8.0517125077642859e+00  -7.4841417336394178e+00  -6.8138881011862482e+00  -6.0308595492461743e+00  -5.1238673932110830e+00  -4.0807118061056133e+00  -2.8883056264824649e+00  -1.5328412035868701e+00  0.0000000000000000e+00  0.0000000000000000e+00  -1.4945727118968768e+00  -2.8124210959596287e+00  -3.9685504524390405e+00  -4.9773600465726577e+00  -5.8524087536066380e+00  -6.6062420110496030e+00  -7.2502765789392125e+00  -7.7947330045643142e+00  -8.2486035407063394e+00  -8.6196439972353947e+00  -8.9143800703743992e+00  -9.1381210471778545e+00  -9.2949758844104906e+00  -9.3878683197510977e+00  -9.4185488893297844e+00  -9.3876025823987490e+00  -9.2944514685836293e+00  -9.1373520913723141e+00  -8.9133878319175555e+00  -8.6184569052317297e+00  -8.2472572550455805e+00  -7.7932704696256208e+00  -7.2487480557688562e+00  -6.6047050653474528e+00  -5.8509281684846259e+00  -4.9760076187365012e+00  -3.9674046189301309e+00  -2.8115663279085177e+00  -1.4940986056662586e+00  0.0000000000000000e+00  0.0000000000000000e+00  -1.4453483324683831e+00  -2.7149682682234073e+00  -3.8247846291321221e+00  -4.7899678223167195e+00  -5.6246676676669205e+00  -6.3418384548722768e+00  -6.9531430931811231e+00  -7.4689163947401553e+00  -7.8981673181509011e+00  -8.2486035407063429e+00  -8.5266662389065555e+00  -8.7375669963876739e+00  -8.8853218314311757e+00  -8.9727794434051429e+00  -9.0016421110739469e+00  -8.9724784620809466e+00  -8.8847277706145142e+00  -8.7366956882705704e+00  -8.5255415012784166e+00  -8.2472572550455752e+00  -7.8966395241898457e+00  -7.4672553916900917e+00  -6.9514055328779989e+00  -6.3400894049028071e+00  -5.6229806121726122e+00  -4.7884245539404722e+00  -3.8234749675503639e+00  -2.7139895208393296e+00  -1.4448043963146893e+00  0.0000000000000000e+00  0.0000000000000000e+00  -1.3842429243038905e+00  -2.5941090156591389e+00  -3.6467451154311279e+00  -4.5583113072365986e+00  -5.3436773721421940e+00  -6.0162586174272574e+00  -6.5879598641684884e+00  -7.0691901647737323e+00  -7.4689163947401553e+00  -7.7947330045643195e+00  -8.0529336182518101e+00  -8.2485763870895070e+00  -8.3855390521469069e+00  -8.4665620328826634e+00  -8.4932790839562209e+00  -8.4662355792830652e+00  -8.3848945933554369e+00  -8.2476308567216350e+00  -8.0517125077642646e+00  -7.7932704696256003e+00  -7.4672553916900828e+00  -7.0673826110929134e+00  -6.5860668127944741e+00  -6.0143504278123068e+00  -5.3418338494609579e+00  -4.5566217631153663e+00  -3.6453082773508463e+00  -2.5930326782237905e+00  -1.3836431994913272e+00  0.0000000000000000e+00  0.0000000000000000e+00  -1.3095348170590650e+00  -2.4465415763248672e+00  -3.4297905821128261e+00  -4.2766913418300190e+00  -5.0029555432265234e+00  -5.6224753576802033e+00  -6.1473451443727996e+00  -6.5879598641684822e+00  -6.9531430931811169e+00  -7.2502765789392116e+00  -7.4854170107596447e+00  -7.6633940812720747e+00  -7.7878884370266812e+00  -7.8614901955269234e+00  -7.8857393905094186e+00  -7.8611496525610685e+00  -7.7872160138272797e+00  -7.6624071478339921e+00  -7.4841417336393921e+00  -7.2487480557688357e+00  -6.9514055328779891e+00  -6.5860668127944706e+00  -6.1453597546727359e+00  -5.6204706954575814e+00  -5.0010149132811925e+00  -4.2749085962484559e+00  -3.4282703392651186e+00  -2.4453992258153705e+00  -1.3088961161926262e+00  0.0000000000000000e+00  0.0000000000000000e+00  -1.2189610481699447e+00  -2.2679771419345505e+00  -3.1679895506751734e+00  -3.9379547483246746e+00  -4.5945099628568853e+00  -5.1519663194584462e+00  -5.6224753576801980e+00  -6.0162586174272477e+00  -6.3418384548722688e+00  -6.6062420110496012e+00  -6.8151693133156162e+00  -6.9731256404383926e+00  -7.0835218373297728e+00  -7.1487470141232166e+00  -7.1702175528419252e+00  -7.1484053425265808e+00  -7.0828470111508519e+00  -6.9721347441173647e+00  -6.8138881011862305e+00  -6.6047050653474404e+00  -6.3400894049028000e+00  -6.0143504278123068e+00  -5.6204706954575840e+00  -5.1499380096943561e+00  -4.5925415371349407e+00  -3.9361410739534763e+00  -3.1664374905694985e+00  -2.2668061217741746e+00  -1.2183032865654841e+00  0.0000000000000000e+00  0.0000000000000000e+00  -1.1094847696791532e+00  -2.0527655932948412e+00  -2.8537126157141182e+00  -3.5331289950251268e+00  -4.1085508726532556e+00  -4.5945099628568844e+00  -5.0029555432265189e+00  -5.3436773721421869e+00  -5.6246676676669187e+00  -5.8524087536066380e+00  -6.0320925683643942e+00  -6.1677838175125173e+00  -6.2625383524781535e+00  -6.3184862296904605e+00  -6.3368864279357719e+00  -6.3181579105888810e+00  -6.2618897078820073e+00  -6.1668308876724822e+00  -6.0308595492461636e+00  -5.8509281684846206e+00  -5.6229806121726087e+00  -5.3418338494609587e+00  -5.0010149132811943e+00  -4.5925415371349