<?xml version="1.0"?>
<VTKFile type="UnstructuredGrid"  version="0.1"  >
<UnstructuredGrid>
<Piece  NumberOfPoints="961" NumberOfCells="1800">
<Points>
<DataArray  type="Float64"  NumberOfComponents="3"  format="ascii">-2 -2 0  -1.866666666666667 -2 0  -1.733333333333333 -2 0  -1.6 -2 0  -1.466666666666667 -2 0  -1.333333333333333 -2 0  -1.2 -2 0  -1.066666666666667 -2 0  -0.9333333333333333 -2 0  -0.8 -2 0  -0.6666666666666667 -2 0  -0.5333333333333334 -2 0  -0.3999999999999999 -2 0  -0.2666666666666666 -2 0  -0.1333333333333333 -2 0  0 -2 0  0.1333333333333333 -2 0  0.2666666666666666 -2 0  0.3999999999999999 -2 0  0.5333333333333332 -2 0  0.6666666666666665 -2 0  0.7999999999999998 -2 0  0.9333333333333331 -2 0  1.066666666666667 -2 0  1.2 -2 0  1.333333333333333 -2 0  1.466666666666667 -2 0  1.6 -2 0  1.733333333333333 -2 0  1.866666666666667 -2 0  2 -2 0  -2 -1.866666666666667 0  -1.866666666666667 -1.866666666666667 0  -1.733333333333333 -1.866666666666667 0  -1.6 -1.866666666666667 0  -1.466666666666667 -1.866666666666667 0  -1.333333333333333 -1.866666666666667 0  -1.2 -1.866666666666667 0  -1.066666666666667 -1.866666666666667 0  -0.9333333333333333 -1.866666666666667 0  -0.8 -1.866666666666667 0  -0.6666666666666667 -1.866666666666667 0  -0.5333333333333334 -1.866666666666667 0  -0.3999999999999999 -1.866666666666667 0  -0.2666666666666666 -1.866666666666667 0  -0.1333333333333333 -1.866666666666667 0  0 -1.866666666666667 0  0.1333333333333333 -1.866666666666667 0  0.2666666666666666 -1.866666666666667 0  0.3999999999999999 -1.866666666666667 0  0.5333333333333332 -1.866666666666667 0  0.6666666666666665 -1.866666666666667 0  0.7999999999999998 -1.866666666666667 0  0.9333333333333331 -1.866666666666667 0  1.066666666666667 -1.866666666666667 0  1.2 -1.866666666666667 0  1.333333333333333 -1.866666666666667 0  1.466666666666667 -1.866666666666667 0  1.6 -1.866666666666667 0  1.733333333333333 -1.866666666666667 0  1.866666666666667 -1.866666666666667 0  2 -1.866666666666667 0  -2 -1.733333333333333 0  -1.866666666666667 -1.733333333333333 0  -1.733333333333333 -1.733333333333333 0  -1.6 -1.733333333333333 0  -1.466666666666667 -1.733333333333333 0  -1.333333333333333 -1.733333333333333 0  -1.2 -1.733333333333333 0  -1.066666666666667 -1.733333333333333 0  -0.9333333333333333 -1.733333333333333 0  -0.8 -1.733333333333333 0  -0.6666666666666667 -1.733333333333333 0  -0.5333333333333334 -1.733333333333333 0  -0.3999999999999999 -1.733333333333333 0  -0.2666666666666666 -1.733333333333333 0  -0.1333333333333333 -1.733333333333333 0  0 -1.733333333333333 0  0.1333333333333333 -1.733333333333333 0  0.2666666666666666 -1.733333333333333 0  0.3999999999999999 -1.733333333333333 0  0.5333333333333332 -1.733333333333333 0  0.6666666666666665 -1.733333333333333 0  0.7999999999999998 -1.733333333333333 0  0.9333333333333331 -1.733333333333333 0  1.066666666666667 -1.733333333333333 0  1.2 -1.733333333333333 0  1.333333333333333 -1.733333333333333 0  1.466666666666667 -1.733333333333333 0  1.6 -1.733333333333333 0  1.733333333333333 -1.733333333333333 0  1.866666666666667 -1.733333333333333 0  2 -1.733333333333333 0  -2 -1.6 0  -1.866666666666667 -1.6 0  -1.733333333333333 -1.6 0  -1.6 -1.6 0  -1.466666666666667 -1.6 0  -1.333333333333333 -1.6 0  -1.2 -1.6 0  -1.066666666666667 -1.6 0  -0.9333333333333333 -1.6 0  -0.8 -1.6 0  -0.6666666666666667 -1.6 0  -0.5333333333333334 -1.6 0  -0.3999999999999999 -1.6 0  -0.2666666666666666 -1.6 0  -0.1333333333333333 -1.6 0  0 -1.6 0  0.1333333333333333 -1.6 0  0.2666666666666666 -1.6 0  0.3999999999999999 -1.6 0  0.5333333333333332 -1.6 0  0.6666666666666665 -1.6 0  0.7999999999999998 -1.6 0  0.9333333333333331 -1.6 0  1.066666666666667 -1.6 0  1.2 -1.6 0  1.333333333333333 -1.6 0  1.466666666666667 -1.6 0  1.6 -1.6 0  1.733333333333333 -1.6 0  1.866666666666667 -1.6 0  2 -1.6 0  -2 -1.466666666666667 0  -1.866666666666667 -1.466666666666667 0  -1.733333333333333 -1.466666666666667 0  -1.6 -1.466666666666667 0  -1.466666666666667 -1.466666666666667 0  -1.333333333333333 -1.466666666666667 0  -1.2 -1.466666666666667 0  -1.066666666666667 -1.466666666666667 0  -0.9333333333333333 -1.466666666666667 0  -0.8 -1.466666666666667 0  -0.6666666666666667 -1.466666666666667 0  -0.5333333333333334 -1.466666666666667 0  -0.3999999999999999 -1.466666666666667 0  -0.2666666666666666 -1.466666666666667 0  -0.1333333333333333 -1.466666666666667 0  0 -1.466666666666667 0  0.1333333333333333 -1.466666666666667 0  0.2666666666666666 -1.466666666666667 0  0.3999999999999999 -1.466666666666667 0  0.5333333333333332 -1.466666666666667 0  0.6666666666666665 -1.466666666666667 0  0.7999999999999998 -1.466666666666667 0  0.9333333333333331 -1.466666666666667 0  1.066666666666667 -1.466666666666667 0  1.2 -1.466666666666667 0  1.333333333333333 -1.466666666666667 0  1.466666666666667 -1.466666666666667 0  1.6 -1.466666666666667 0  1.733333333333333 -1.466666666666667 0  1.866666666666667 -1.466666666666667 0  2 -1.466666666666667 0  -2 -1.333333333333333 0  -1.866666666666667 -1.333333333333333 0  -1.733333333333333 -1.333333333333333 0  -1.6 -1.333333333333333 0  -1.466666666666667 -1.333333333333333 0  -1.333333333333333 -1.333333333333333 0  -1.2 -1.333333333333333 0  -1.066666666666667 -1.333333333333333 0  -0.9333333333333333 -1.333333333333333 0  -0.8 -1.333333333333333 0  -0.6666666666666667 -1.333333333333333 0  -0.5333333333333334 -1.333333333333333 0  -0.3999999999999999 -1.333333333333333 0  -0.2666666666666666 -1.333333333333333 0  -0.1333333333333333 -1.333333333333333 0  0 -1.333333333333333 0  0.1333333333333333 -1.333333333333333 0  0.2666666666666666 -1.333333333333333 0  0.3999999999999999 -1.333333333333333 0  0.5333333333333332 -1.333333333333333 0  0.6666666666666665 -1.333333333333333 0  0.7999999999999998 -1.333333333333333 0  0.9333333333333331 -1.333333333333333 0  1.066666666666667 -1.333333333333333 0  1.2 -1.333333333333333 0  1.333333333333333 -1.333333333333333 0  1.466666666666667 -1.333333333333333 0  1.6 -1.333333333333333 0  1.733333333333333 -1.333333333333333 0  1.866666666666667 -1.333333333333333 0  2 -1.333333333333333 0  -2 -1.2 0  -1.866666666666667 -1.2 0  -1.733333333333333 -1.2 0  -1.6 -1.2 0  -1.466666666666667 -1.2 0  -1.333333333333333 -1.2 0  -1.2 -1.2 0  -1.066666666666667 -1.2 0  -0.9333333333333333 -1.2 0  -0.8 -1.2 0  -0.6666666666666667 -1.2 0  -0.5333333333333334 -1.2 0  -0.3999999999999999 -1.2 0  -0.2666666666666666 -1.2 0  -0.1333333333333333 -1.2 0  0 -1.2 0  0.1333333333333333 -1.2 0  0.2666666666666666 -1.2 0  0.3999999999999999 -1.2 0  0.5333333333333332 -1.2 0  0.6666666666666665 -1.2 0  0.7999999999999998 -1.2 0  0.9333333333333331 -1.2 0  1.066666666666667 -1.2 0  1.2 -1.2 0  1.333333333333333 -1.2 0  1.466666666666667 -1.2 0  1.6 -1.2 0  1.733333333333333 -1.2 0  1.866666666666667 -1.2 0  2 -1.2 0  -2 -1.066666666666667 0  -1.866666666666667 -1.066666666666667 0  -1.733333333333333 -1.066666666666667 0  -1.6 -1.066666666666667 0  -1.466666666666667 -1.066666666666667 0  -1.333333333333333 -1.066666666666667 0  -1.2 -1.066666666666667 0  -1.066666666666667 -1.066666666666667 0  -0.9333333333333333 -1.066666666666667 0  -0.8 -1.066666666666667 0  -0.6666666666666667 -1.066666666666667 0  -0.5333333333333334 -1.066666666666667 0  -0.3999999999999999 -1.066666666666667 0  -0.2666666666666666 -1.066666666666667 0  -0.1333333333333333 -1.066666666666667 0  0 -1.066666666666667 0  0.1333333333333333 -1.066666666666667 0  0.2666666666666666 -1.066666666666667 0  0.3999999999999999 -1.066666666666667 0  0.5333333333333332 -1.066666666666667 0  0.6666666666666665 -1.066666666666667 0  0.7999999999999998 -1.066666666666667 0  0.9333333333333331 -1.066666666666667 0  1.066666666666667 -1.066666666666667 0  1.2 -1.066666666666667 0  1.333333333333333 -1.066666666666667 0  1.466666666666667 -1.066666666666667 0  1.6 -1.066666666666667 0  1.733333333333333 -1.066666666666667 0  1.866666666666667 -1.066666666666667 0  2 -1.066666666666667 0  -2 -0.9333333333333333 0  -1.866666666666667 -0.9333333333333333 0  -1.733333333333333 -0.9333333333333333 0  -1.6 -0.9333333333333333 0  -1.466666666666667 -0.9333333333333333 0  -1.333333333333333 -0.9333333333333333 0  -1.2 -0.9333333333333333 0  -1.066666666666667 -0.9333333333333333 0  -0.9333333333333333 -0.9333333333333333 0  -0.8 -0.9333333333333333 0  -0.6666666666666667 -0.9333333333333333 0  -0.5333333333333334 -0.9333333333333333 0  -0.3999999999999999 -0.9333333333333333 0  -0.2666666666666666 -0.9333333333333333 0  -0.1333333333333333 -0.9333333333333333 0  0 -0.9333333333333333 0  0.1333333333333333 -0.9333333333333333 0  0.2666666666666666 -0.9333333333333333 0  0.3999999999999999 -0.9333333333333333 0  0.5333333333333332 -0.9333333333333333 0  0.6666666666666665 -0.9333333333333333 0  0.7999999999999998 -0.9333333333333333 0  0.9333333333333331 -0.9333333333333333 0  1.066666666666667 -0.9333333333333333 0  1.2 -0.9333333333333333 0  1.333333333333333 -0.9333333333333333 0  1.466666666666667 -0.9333333333333333 0  1.6 -0.9333333333333333 0  1.733333333333333 -0.9333333333333333 0  1.866666666666667 -0.9333333333333333 0  2 -0.9333333333333333 0  -2 -0.8 0  -1.866666666666667 -0.8 0  -1.733333333333333 -0.8 0  -1.6 -0.8 0  -1.466666666666667 -0.8 0  -1.333333333333333 -0.8 0  -1.2 -0.8 0  -1.066666666666667 -0.8 0  -0.9333333333333333 -0.8 0  -0.8 -0.8 0  -0.6666666666666667 -0.8 0  -0.5333333333333334 -0.8 0  -0.3999999999999999 -0.8 0  -0.2666666666666666 -0.8 0  -0.1333333333333333 -0.8 0  0 -0.8 0  0.1333333333333333 -0.8 0  0.2666666666666666 -0.8 0  0.3999999999999999 -0.8 0  0.5333333333333332 -0.8 0  0.6666666666666665 -0.8 0  0.7999999999999998 -0.8 0  0.9333333333333331 -0.8 0  1.066666666666667 -0.8 0  1.2 -0.8 0  1.333333333333333 -0.8 0  1.466666666666667 -0.8 0  1.6 -0.8 0  1.733333333333333 -0.8 0  1.866666666666667 -0.8 0  2 -0.8 0  -2 -0.6666666666666667 0  -1.866666666666667 -0.
[...]
<PointData  Scalars="f_8002"> 
<DataArray  type="Float64"  Name="f_8002"  format="ascii">0.0000000000000000e+00  0.0000000000000000e+00  0.0000000000000000e+00  0.0000000000000000e+00  0.0000000000000000e+00  0.0000000000000000e+00  0.0000000000000000e+00  0.0000000000000000e+00  0.0000000000000000e+00  0.0000000000000000e+00  0.0000000000000000e+00  0.0000000000000000e+00  0.0000000000000000e+00  0.0000000000000000e+00  0.0000000000000000e+00  0.0000000000000000e+00  0.0000000000000000e+00  0.0000000000000000e+00  0.0000000000000000e+00  0.0000000000000000e+00  0.0000000000000000e+00  0.0000000000000000e+00  0.0000000000000000e+00  0.0000000000000000e+00  0.0000000000000000e+00  0.0000000000000000e+00  0.0000000000000000e+00  0.0000000000000000e+00  0.0000000000000000e+00  0.0000000000000000e+00  0.0000000000000000e+00  0.0000000000000000e+00  -3.3993796858228847e-01  -5.8440180539869058e-01  -7.7175168446124021e-01  -9.2024235308668623e-01  -1.0400295292908930e+00  -1.1374851972922464e+00  -1.2169637319166562e+00  -1.2816172220053543e+00  -1.3338124455322991e+00  -1.3753623027900863e+00  -1.4076625398691989e+00  -1.4317762154450191e+00  -1.4484873081293810e+00  -1.4583348923052042e+00  -1.4616342081294418e+00  -1.4584881237552569e+00  -1.4487907574424228e+00  -1.4322237999028129e+00  -1.4082449957777960e+00  -1.3760670147345704e+00  -1.3346232098420734e+00  -1.2825139287427876e+00  -1.2179219326940538e+00  -1.1384754934930459e+00  -1.0410166499321942e+00  -9.2118365196626362e-01  -7.7259445981413932e-01  -5.8507799810179906e-01  -3.4035234152058280e-01  0.0000000000000000e+00  0.0000000000000000e+00  -5.8440180539869069e-01  -1.0358575675800037e+00  -1.3931676133727529e+00  -1.6808255310941445e+00  -1.9148183190779948e+00  -2.1061152328813617e+00  -2.2626017900639854e+00  -2.3901580522763539e+00  -2.4932798278585624e+00  -2.5754507407919687e+00  -2.6393732403830650e+00  -2.6871161393348553e+00  -2.7202103935294533e+00  -2.7397111172773463e+00  -2.7462362151880466e+00  -2.7399875328482088e+00  -2.7207575605587624e+00  -2.6879226253776762e+00  -2.6404216350658380e+00  -2.5767173367189926e+00  -2.4947341809478196e+00  -2.3917623964077555e+00  -2.2643102546880525e+00  -2.1078727645329116e+00  -1.9165591205324433e+00  -1.6824706689233162e+00  -1.3946211334851581e+00  -1.0369998677753036e+00  -5.8507799810179906e-01  0.0000000000000000e+00  0.0000000000000000e+00  -7.7175168446124043e-01  -1.3931676133727533e+00  -1.8976685659161949e+00  -2.3101677006701826e+00  -2.6489761264786349e+00  -2.9277091548632082e+00  -3.1566893007687020e+00  -3.3438890526665963e+00  -3.4955484751067196e+00  -3.6165799108084116e+00  -3.7108357226133348e+00  -3.7812871948238396e+00  -3.8301444787618184e+00  -3.8589360451402750e+00  -3.8685589550546462e+00  -3.8593066517030552e+00  -3.8308778089116964e+00  -3.7823673403777867e+00  -3.7122384650705817e+00  -3.6182722900308009e+00  -3.4974882014338915e+00  -3.3460237377993236e+00  -3.1589554570032909e+00  -2.9300308688397965e+00  -2.6512632432157779e+00  -2.3123132441112428e+00  -1.8995449655354455e+00  -1.3946211334851584e+00  -7.7259445981413966e-01  0.0000000000000000e+00  0.0000000000000000e+00  -9.2024235308668634e-01  -1.6808255310941449e+00  -2.3101677006701835e+00  -2.8316673573558893e+00  -3.2640261000824378e+00  -3.6220766190005498e+00  -3.9176119953455411e+00  -4.1600581435068076e+00  -4.3569757193201681e+00  -4.5144216211864787e+00  -4.6372053953205867e+00  -4.7290696239562111e+00  -4.7928155552290255e+00  -4.8303886493841421e+00  -4.8429337557660821e+00  -4.8308259891636336e+00  -4.7936806158598380e+00  -4.7303430000880597e+00  -4.6388575610518386e+00  -4.5164124291668095e+00  -4.3592537281854158e+00  -4.1625597581388298e+00  -3.9202603858040619e+00  -3.6247803552706515e+00  -3.2666774004793835e+00  -2.8341398035843164e+00  -2.3123132441112433e+00  -1.6824706689233169e+00  -9.2118365196626406e-01  0.0000000000000000e+00  0.0000000000000000e+00  -1.0400295292908932e+00  -1.9148183190779955e+00  -2.6489761264786353e+00  -3.2640261000824382e+00  -3.7781962015264141e+00  -4.2066733202990330e+00  -4.5620174511611680e+00  -4.8545778004283751e+00  -5.0928490970407383e+00  -5.2837547197840014e+00  -5.4328627532467664e+00  -5.5445466153459133e+00  -5.6221016721133186e+00  -5.6678271216724072e+00  -5.6830799673620573e+00  -5.6683056408232551e+00  -5.6230478694840764e+00  -5.5459386293171864e+00  -5.4346673450601521e+00  -5.2859267450831293e+00  -5.0953308089230118e+00  -4.8572979825065330e+00  -4.5648903698144130e+00  -4.2095974726405592e+00  -3.7810528237356928e+00  -3.2666774004793835e+00  -2.6512632432157783e+00  -1.9165591205324444e+00  -1.0410166499321942e+00  0.0000000000000000e+00  0.0000000000000000e+00  -1.1374851972922455e+00  -2.1061152328813599e+00  -2.9277091548632059e+00  -3.6220766190005467e+00  -4.2066733202990312e+00  -4.6965844557988818e+00  -5.1046824058525964e+00  -5.4418486114586457e+00  -5.7171979485082423e+00  -5.9382775372604302e+00  -6.1112308871789436e+00  -6.2409273617876524e+00  -6.3310604659688270e+00  -6.3842191964121744e+00  -6.4019361988263590e+00  -6.3847155087156864e+00  -6.3320415517717423e+00  -6.2423699631929397e+00  -6.1130996721034876e+00  -5.9405245795010977e+00  -5.7197620556054991e+00  -5.4446545135461468e+00  -5.1076398176959099e+00  -4.6995870239324047e+00  -4.2095974726405583e+00  -3.6247803552706488e+00  -2.9300308688397934e+00  -2.1078727645329107e+00  -1.1384754934930457e+00  0.0000000000000000e+00  0.0000000000000000e+00  -1.2169637319166549e+00  -2.2626017900639828e+00  -3.1566893007687016e+00  -3.9176119953455384e+00  -4.5620174511611635e+00  -5.1046824058525946e+00  -5.5585245396948615e+00  -5.9346922698917268e+00  -6.2426855672844228e+00  -6.4904797454817009e+00  -6.6846378049584469e+00  -6.8304052490096838e+00  -6.9317857671143059e+00  -6.9915982477659862e+00  -7.0115162823124111e+00  -6.9920913059080494e+00  -6.9327601614196164e+00  -6.8318373642070620e+00  -6.6864917974935851e+00  -6.4927070594738217e+00  -6.2452243219780961e+00  -5.9374665440942822e+00  -5.5614435835900755e+00  -5.1076398176959046e+00  -4.5648903698144068e+00  -3.9202603858040548e+00  -3.1589554570032843e+00  -2.2643102546880485e+00  -1.2179219326940525e+00  0.0000000000000000e+00  0.0000000000000000e+00  -1.2816172220053541e+00  -2.3901580522763539e+00  -3.3438890526665985e+00  -4.1600581435068067e+00  -4.8545778004283733e+00  -5.4418486114586448e+00  -5.9346922698917268e+00  -6.3443567824636729e+00  -6.6805621394005579e+00  -6.9515637253810683e+00  -7.1642190544063382e+00  -7.3240495600592581e+00  -7.4352931724297875e+00  -7.5009457629250313e+00  -7.5227907792160895e+00  -7.5014169525755694e+00  -7.4362241347844114e+00  -7.3254173057928265e+00  -7.1659887201132806e+00  -6.9536881435191091e+00  -6.6829813059298946e+00  -6.3469972559605132e+00  -5.9374665440942831e+00  -5.4446545135461424e+00  -4.8572979825065259e+00  -4.1625597581388227e+00  -3.3460237377993178e+00  -2.3917623964077510e+00  -1.2825139287427851e+00  0.0000000000000000e+00  0.0000000000000000e+00  -1.3338124455322995e+00  -2.4932798278585615e+00  -3.4955484751067210e+00  -4.3569757193201673e+00  -5.0928490970407365e+00  -5.7171979485082387e+00  -6.2426855672844201e+00  -6.6805621394005552e+00  -7.0406583887442480e+00  -7.3314032769092599e+00  -7.5598535183489552e+00  -7.7317266350987062e+00  -7.8514323015484369e+00  -7.9220988226171318e+00  -7.9455929401773648e+00  -7.9225319956280247e+00  -7.8522879835117356e+00  -7.7329833627514111e+00  -7.5614787688030072e+00  -7.3333531014213600e+00  -7.0428769693324806e+00  -6.6829813059299044e+00  -6.2452243219781050e+00  -5.7197620556055027e+00  -5.0953308089230109e+00  -4.3592537281854158e+00  -3.4974882014338911e+00  -2.4947341809478187e+00  -1.3346232098420736e+00  0.0000000000000000e+00  0.0000000000000000e+00  -1.3753623027900861e+00  -2.5754507407919673e+00  -3.6165799108084111e+00  -4.5144216211864769e+00  -5.2837547197839978e+00  -5.9382775372604293e+00  -6.4904797454817009e+00  -6.9515637253810674e+00  -7.3314032769092599e+00  -7.6385281200734552e+00  -7.8801245987692532e+00  -8.0620452736496482e+00  -8.1888221435397703e+00  -8.2636798792214261e+00  -8.2885466889903388e+00  -8.2640613421359213e+00  -8.1895755551356721e+00  -8.0631514929124108e+00  -7.8815546425264076e+00  -7.6402428640164084e+00  -7.3333531014213733e+00  -6.9536881435191322e+00  -6.4927070594738421e+00  -5.9405245795011083e+00  -5.2859267450831338e+00  -4.5164124291668148e+00  -3.6182722900308044e+00  -2.5767173367189953e+00  -1.3760670147345722e+00  0.0000000000000000e+00  0.0000000000000000e+00  -1.4076625398691982e+00  -2.6393732403830632e+00  -3.7108357226133335e+00  -4.6372053953205850e+00  -5.4328627532467646e+00  -6.1112308871789454e+00  -6.6846378049584461e+00  -7.1642190544063373e+00  -7.5598535183489579e+00  -7.8801245987692559e+00  -8.1322995662476725e+00  -8.3223209783215886e+00  -8.4548053431802739e+00  -8.5330454011984180e+00  -8.5590134329073315e+00  -8.5333638743203579e+00  -8.4554342634662500e+00  -8.3232442046789519e+00  -8.1334926728704371e+00  -7.8815546425264200e+00  -7.5614787688030320e+00  -7.1659887201133126e+00  -6.6864917974936171e+00  -6.1130996721035071e+00  -5.4346673450601610e+00  -4.6388575610518474e+00  -3.7122384650705893e+00  -2.6404216350658434e+00  -1.4082449957777992e+00  0.0000000000000000e+00  0.0000000000000000e+00  -1.4317762154450175e+00  -2.6871161393348522e+00  -3.7812871948238356e+00  -4.7290696239562049e+00  -5.5445466153459053e+00  -6.2409273617876480e+00  -6.8304052490096812e+00  -7.3240495600592590e+00  -7.7317266350987044e+00  -8.0620452736496517e+00  -8.3223209783215886e+00  -8.5185540516159133e+00  -8.6554172767968094e+00  -8.7362497455546375e+00  -8.7630542317619646e+00  -8.7364963063507695e+00  -8.6559041355837074e+00  -8.5192686167928393e+00  -8.3232442046789519e+00  -8.0631514929124180e+00  -7.7329833627514306e+00  -7.3254173057928584e+00  -6.8318373642070949e+00  -6.2423699631929592e+00  -5.5459386293171944e+00  -4.7303430000880677e+00  -3.7823673403777947e+00  -2.6879226253776816e+00  -1.4322237999028160e+00  0.0000000000000000e+00  0.0000000000000000e+00  -1.4484873081293796e+00  -2.7202103935294493e+00  -3.8301444787618131e+00  -4.7928155552290166e+00  -5.6221016721133070e+00  -6.3310604659688181e+00  -6.9317857671143068e+00  -7.4352931724297928e+00  -7.8514323015484404e+00  -8.1888221435397668e+00  -8.4548053431802721e+00  -8.6554172767968112e+00  -8.7953661334746691e+00  -8.8780207929355264e+00  -8.9054039701788898e+00  -8.8781888157188842e+00  -8.7956978875073535e+00  -8.6559041355836985e+00  -8.4554342634662376e+00  -8.1895755551356739e+00  -7.8522879835117498e+00  -7.4362241347844398e+00  -6.9327601614196448e+00  -6.3320415517717583e+00  -5.6230478694840853e+00  -4.7936806158598433e+00  -3.8308778089116999e+00  -2.7207575605587659e+00  -1.4487907574424252e+00  0.0000000000000000e+00  0.0000000000000000e+00  -1.4583348923052033e+00  -2.7397111172773414e+00  -3.8589360451402661e+00  -4.8303886493841333e+00  -5.6678271216723983e+00  -6.3842191964121699e+00  -6.9915982477659862e+00  -7.5009457629250313e+00  -7.9220988226171345e+00  -8.2636798792214208e+00  -8.5330454011984109e+00  -8.7362497455546322e+00  -8.8780207929355210e+00  -8.9617443063459952e+00  -8.9894545547957367e+00  -8.9618294081104128e+00  -8.8781888157188789e+00  -8.7364963063507552e+00  -8.5333638743203402e+00  -8.2640613421359195e+00  -7.9225319956280371e+00  -7.5014169525755943e+00  -6.9920913059080716e+00  -6.3847155087156988e+00  -5.6683056408232630e+00  -4.8308259891636371e+00  -3.8593066517030565e+00  -2.7399875328482111e+00  -1.4584881237552587e+00  0.0000000000000000e+00  0.0000000000000000e+00  -1.4616342081294396e+00  -2.7462362151880417e+00  -3.8685589550546391e+00  -4.8429337557660750e+00  -5.6830799673620538e+00  -6.4019361988263590e+00  -7.0115162823124049e+00  -7.5227907792160824e+00  -7.9455929401773551e+00  -8.2885466889903281e+00  -8.5590134329073155e+00  -8.7630542317619575e+00  -8.9054039701788792e+00  -8.9894545547957296e+00  -9.0172447054101532e+00  -8.9894545547957296e+00  -8.9054039701788774e+00  -8.7630542317619469e+00  -8.5590134329073138e+00  -8.2885466889903388e+00  -7.9455929401773755e+00  -7.5227907792161117e+00  -7.0115162823124315e+00  -6.4019361988263732e+00  -5.6830799673620653e+00  -4.8429337557660865e+00  -3.8685589550546493e+00  -2.7462362151880488e+00  -1.4616342081294436e+00  0.0000000000000000e+00  0.0000000000000000e+00  -1.4584881237552545e+00  -2.7399875328482040e+00  -3.8593066517030490e+00  -4.8308259891636274e+00  -5.6683056408232497e+00  -6.3847155087156828e+00  -6.9920913059080441e+00  -7.5014169525755614e+00  -7.9225319956280096e+00  -8.2640613421359017e+00  -8.5333638743203366e+00  -8.7364963063507570e+00  -8.8781888157188718e+00  -8.9618294081104022e+00  -8.9894545547957243e+00  -8.9617443063459881e+00  -8.8780207929355122e+00  -8.7362497455546180e+00  -8.5330454011984056e+00  -8.2636798792214243e+00  -7.9220988226171434e+00  -7.5009457629250536e+00  -6.9915982477660075e+00  -6.3842191964121868e+00  -5.6678271216724143e+00  -4.8303886493841475e+00  -3.8589360451402777e+00  -2.7397111172773494e+00  -1.4583348923052069e+00  0.0000000000000000e+00  0.0000000000000000e+00  -1.4487907574424206e+00  -2.7207575605587584e+00  -3.8308778089116897e+00  -4.7936806158598317e+00  -5.6230478694840738e+00  -6.3320415517717432e+00  -6.9327601614196182e+00  -7.4362241347844034e+00  -7.8522879835117187e+00  -8.1895755551356473e+00  -8.4554342634662270e+00  -8.6559041355836950e+00  -8.7956978875073375e+00  -8.8781888157188646e+00  -8.9054039701788721e+00  -8.8780207929355086e+00  -8.7953661334746549e+00  -8.6554172767967952e+00  -8.4548053431802614e+00  -8.1888221435397703e+00  -7.8514323015484475e+00  -7.4352931724298070e+00  -6.9317857671143228e+00  -6.3310604659688376e+00  -5.6221016721133257e+00  -4.7928155552290308e+00  -3.8301444787618228e+00  -2.7202103935294559e+00  -1.4484873081293828e+00  0.0000000000000000e+00  0.0000000000000000e+00  -1.4322237999028116e+00  -2.6879226253776731e+00  -3.7823673403777822e+00  -4.7303430000880553e+00  -5.5459386293171820e+00  -6.2423699631929397e+00  -6.8318373642070602e+00  -7.3254173057928194e+00  -7.7329833627513960e+00  -8.0631514929123931e+00  -8.3232442046789323e+00  -8.5192686167928215e+00  -8.6559041355836825e+00  -8.7364963063507446e+00  -8.7630542317619415e+00  -8.7362497455546144e+00  -8.6554172767967916e+00  -8.5185540516159044e+00  -8.3223209783215797e+00  -8.0620452736496517e+00  -7.7317266350987124e+00  -7.3240495600592750e+00  -6.8304052490096998e+00  -6.2409273617876639e+00  -5.5445466153459213e+00  -4.7290696239562164e+00  -3.7812871948238440e+00  -2.6871161393348570e+00  -1.4317762154450202e+00  0.0000000000000000e+00  0.0000000000000000e+00  -1.4082449957777954e+00  -2.6404216350658367e+00  -3.7122384650705795e+00  -4.6388575610518368e+00  -5.4346673450601513e+00  -6.1130996721034903e+00  -6.6864917974935878e+00  -7.1659887201132735e+00  -7.5614787688029965e+00  -7.8815546425263951e+00  -8.1334926728704104e+00  -8.3232442046789323e+00  -8.4554342634662163e+00  -8.5333638743203277e+00  -8.5590134329073013e+00  -8.5330454011983967e+00  -8.4548053431802561e+00  -8.3223209783215744e+00  -8.1322995662476618e+00  -7.8801245987692523e+00  -7.5598535183489632e+00  -7.1642190544063524e+00  -6.6846378049584656e+00  -6.1112308871789596e+00  -5.4328627532467753e+00  -4.6372053953205921e+00  -3.7108357226133379e+00  -2.6393732403830659e+00  -1.4076625398692000e+00  0.0000000000000000e+00  0.0000000000000000e+00  -1.3760670147345697e+00  -2.5767173367189922e+00  -3.6182722900308000e+00  -4.5164124291668069e+00  -5.2859267450831284e+00  -5.9405245795010986e+00  -6.4927070594738217e+00  -6.9536881435191038e+00  -7.3333531014213476e+00  -7.6402428640163933e+00  -7.8815546425263996e+00  -8.0631514929123984e+00  -8.1895755551356526e+00  -8.2640613421358999e+00  -8.2885466889903210e+00  -8.2636798792214101e+00  -8.1888221435397544e+00  -8.0620452736496411e+00  -7.8801245987692461e+00  -7.6385281200734578e+00  -7.3314032769092723e+00  -6.9515637253810949e+00  -6.4904797454817267e+00  -5.9382775372604462e+00  -5.2837547197840093e+00  -4.5144216211864858e+00  -3.6165799108084169e+00  -2.5754507407919718e+00  -1.3753623027900888e+00  0.0000000000000000e+00  0.0000000000000000e+00  -1.3346232098420723e+00  -2.4947341809478178e+00  -3.4974882014338888e+00  -4.3592537281854113e+00  -5.0953308089230056e+00  -5.7197620556054982e+00  -6.2452243219780970e+00  -6.6829813059298893e+00  -7.0428769693324655e+00  -7.3333531014213529e+00  -7.5614787688030063e+00  -7.7329833627514111e+00  -7.8522879835117259e+00  -7.9225319956280140e+00  -7.9455929401773551e+00  -7.9220988226171265e+00  -7.8514323015484315e+00  -7.7317266350986964e+00  -7.5598535183489552e+00  -7.3314032769092661e+00  -7.0406583887442657e+00  -6.6805621394005845e+00  -6.2426855672844450e+00  -5.7171979485082582e+00  -5.0928490970407481e+00  -4.3569757193201761e+00  -3.4955484751067272e+00  -2.4932798278585668e+00  -1.3338124455323017e+00  0.0000000000000000e+00  0.0000000000000000e+00  -1.2825139287427849e+00  -2.3917623964077510e+00  -3.3460237377993187e+00  -4.1625597581388236e+00  -4.8572979825065277e+00  -5.4446545135461415e+00  -5.9374665440942733e+00  -6.3469972559604990e+00  -6.6829813059298884e+00  -6.9536881435191100e+00  -7.1659887201132850e+00  -7.3254173057928336e+00  -7.4362241347844131e+00  -7.5014169525755694e+00  -7.5227907792160886e+00  -7.5009457629250313e+00  -7.4352931724297884e+00  -7.3240495600592563e+00  -7.1642190544063364e+00  -6.9515637253810763e+00  -6.6805621394005756e+00  -6.3443567824636968e+00  -5.9346922698917481e+00  -5.4418486114586591e+00  -4.8545778004283848e+00  -4.1600581435068165e+00  -3.3438890526666047e+00  -2.3901580522763592e+00  -1.2816172220053568e+00  0.0000000000000000e+00  0.0000000000000000e+00  -1.2179219326940516e+00  -2.2643102546880485e+00  -3.1589554570032838e+00  -3.9202603858040539e+00  -4.5648903698144050e+00  -5.1076398176959019e+00  -5.5614435835900640e+00  -5.9374665440942689e+00  -6.2452243219780899e+00  -6.4927070594738208e+00  -6.6864917974935967e+00  -6.8318373642070691e+00  -6.9327601614196199e+00  -6.9920913059080485e+00  -7.0115162823124066e+00  -6.9915982477659870e+00  -6.9317857671143059e+00  -6.8304052490096767e+00  -6.6846378049584434e+00  -6.4904797454817063e+00  -6.2426855672844317e+00  -5.9346922698917437e+00  -5.5585245396948748e+00  -5.1046824058526035e+00  -4.5620174511611724e+00  -3.9176119953455455e+00  -3.1566893007687065e+00  -2.2626017900639863e+00  -1.2169637319166564e+00  0.0000000000000000e+00  0.0000000000000000e+00  -1.1384754934930443e+00  -2.1078727645329085e+00  -2.9300308688397907e+00  -3.6247803552706457e+00  -4.2095974726405547e+00  -4.6995870239323994e+00  -5.1076398176958975e+00  -5.4446545135461326e+00  -5.7197620556054902e+00  -5.9405245795010941e+00  -6.1130996721034903e+00  -6.2423699631929424e+00  -6.3320415517717414e+00  -6.3847155087156837e+00  -6.4019361988263581e+00  -6.3842191964121708e+00  -6.3310604659688225e+00  -6.2409273617876462e+00  -6.1112308871789427e+00  -5.9382775372604328e+00  -5.7171979485082511e+00  -5.4418486114586582e+00  -5.1046824058526061e+00  -4.6965844557988907e+00  -4.2066733202990383e+00  -3.6220766190005538e+00  -2.9277091548632082e+00  -2.1061152328813613e+00  -1.1374851972922460e+00  0.0000000000000000e+00  0.0000000000000000e+00  -1.0410166499321922e+00  -1.9165591205324413e+00  -2.6512632432157752e+00  -3.2666774004793795e+00  -3.7810528237356893e+00  -4.2095974726405538e+00  -4.5648903698144032e+00  -4.8572979825065188e+00  -5.0953308089230003e+00  -5.2859267450831222e+00  -5.4346673450601495e+00  -5.5459386293171820e+00  -5.6230478694840782e+00  -5.6683056408232533e+00  -5.6830799673620556e+00  -5.6678271216724028e+00  -5.6221016721133132e+00  -5.5445466153459089e+00  -5.4328627532467673e+00  -5.2837547197840040e+00  -5.0928490970407463e+00  -4.8545778004283848e+00  -4.5620174511611760e+00  -4.2066733202990