<?xml version="1.0"?>
<VTKFile type="UnstructuredGrid"  version="0.1"  >
<UnstructuredGrid>
<Piece  NumberOfPoints="961" NumberOfCells="1800">
<Points>
<DataArray  type="Float64"  NumberOfComponents="3"  format="ascii">-2 -2 0  -1.866666666666667 -2 0  -1.733333333333333 -2 0  -1.6 -2 0  -1.466666666666667 -2 0  -1.333333333333333 -2 0  -1.2 -2 0  -1.066666666666667 -2 0  -0.9333333333333333 -2 0  -0.8 -2 0  -0.6666666666666667 -2 0  -0.5333333333333334 -2 0  -0.3999999999999999 -2 0  -0.2666666666666666 -2 0  -0.1333333333333333 -2 0  0 -2 0  0.1333333333333333 -2 0  0.2666666666666666 -2 0  0.3999999999999999 -2 0  0.5333333333333332 -2 0  0.6666666666666665 -2 0  0.7999999999999998 -2 0  0.9333333333333331 -2 0  1.066666666666667 -2 0  1.2 -2 0  1.333333333333333 -2 0  1.466666666666667 -2 0  1.6 -2 0  1.733333333333333 -2 0  1.866666666666667 -2 0  2 -2 0  -2 -1.866666666666667 0  -1.866666666666667 -1.866666666666667 0  -1.733333333333333 -1.866666666666667 0  -1.6 -1.866666666666667 0  -1.466666666666667 -1.866666666666667 0  -1.333333333333333 -1.866666666666667 0  -1.2 -1.866666666666667 0  -1.066666666666667 -1.866666666666667 0  -0.9333333333333333 -1.866666666666667 0  -0.8 -1.866666666666667 0  -0.6666666666666667 -1.866666666666667 0  -0.5333333333333334 -1.866666666666667 0  -0.3999999999999999 -1.866666666666667 0  -0.2666666666666666 -1.866666666666667 0  -0.1333333333333333 -1.866666666666667 0  0 -1.866666666666667 0  0.1333333333333333 -1.866666666666667 0  0.2666666666666666 -1.866666666666667 0  0.3999999999999999 -1.866666666666667 0  0.5333333333333332 -1.866666666666667 0  0.6666666666666665 -1.866666666666667 0  0.7999999999999998 -1.866666666666667 0  0.9333333333333331 -1.866666666666667 0  1.066666666666667 -1.866666666666667 0  1.2 -1.866666666666667 0  1.333333333333333 -1.866666666666667 0  1.466666666666667 -1.866666666666667 0  1.6 -1.866666666666667 0  1.733333333333333 -1.866666666666667 0  1.866666666666667 -1.866666666666667 0  2 -1.866666666666667 0  -2 -1.733333333333333 0  -1.866666666666667 -1.733333333333333 0  -1.733333333333333 -1.733333333333333 0  -1.6 -1.733333333333333 0  -1.466666666666667 -1.733333333333333 0  -1.333333333333333 -1.733333333333333 0  -1.2 -1.733333333333333 0  -1.066666666666667 -1.733333333333333 0  -0.9333333333333333 -1.733333333333333 0  -0.8 -1.733333333333333 0  -0.6666666666666667 -1.733333333333333 0  -0.5333333333333334 -1.733333333333333 0  -0.3999999999999999 -1.733333333333333 0  -0.2666666666666666 -1.733333333333333 0  -0.1333333333333333 -1.733333333333333 0  0 -1.733333333333333 0  0.1333333333333333 -1.733333333333333 0  0.2666666666666666 -1.733333333333333 0  0.3999999999999999 -1.733333333333333 0  0.5333333333333332 -1.733333333333333 0  0.6666666666666665 -1.733333333333333 0  0.7999999999999998 -1.733333333333333 0  0.9333333333333331 -1.733333333333333 0  1.066666666666667 -1.733333333333333 0  1.2 -1.733333333333333 0  1.333333333333333 -1.733333333333333 0  1.466666666666667 -1.733333333333333 0  1.6 -1.733333333333333 0  1.733333333333333 -1.733333333333333 0  1.866666666666667 -1.733333333333333 0  2 -1.733333333333333 0  -2 -1.6 0  -1.866666666666667 -1.6 0  -1.733333333333333 -1.6 0  -1.6 -1.6 0  -1.466666666666667 -1.6 0  -1.333333333333333 -1.6 0  -1.2 -1.6 0  -1.066666666666667 -1.6 0  -0.9333333333333333 -1.6 0  -0.8 -1.6 0  -0.6666666666666667 -1.6 0  -0.5333333333333334 -1.6 0  -0.3999999999999999 -1.6 0  -0.2666666666666666 -1.6 0  -0.1333333333333333 -1.6 0  0 -1.6 0  0.1333333333333333 -1.6 0  0.2666666666666666 -1.6 0  0.3999999999999999 -1.6 0  0.5333333333333332 -1.6 0  0.6666666666666665 -1.6 0  0.7999999999999998 -1.6 0  0.9333333333333331 -1.6 0  1.066666666666667 -1.6 0  1.2 -1.6 0  1.333333333333333 -1.6 0  1.466666666666667 -1.6 0  1.6 -1.6 0  1.733333333333333 -1.6 0  1.866666666666667 -1.6 0  2 -1.6 0  -2 -1.466666666666667 0  -1.866666666666667 -1.466666666666667 0  -1.733333333333333 -1.466666666666667 0  -1.6 -1.466666666666667 0  -1.466666666666667 -1.466666666666667 0  -1.333333333333333 -1.466666666666667 0  -1.2 -1.466666666666667 0  -1.066666666666667 -1.466666666666667 0  -0.9333333333333333 -1.466666666666667 0  -0.8 -1.466666666666667 0  -0.6666666666666667 -1.466666666666667 0  -0.5333333333333334 -1.466666666666667 0  -0.3999999999999999 -1.466666666666667 0  -0.2666666666666666 -1.466666666666667 0  -0.1333333333333333 -1.466666666666667 0  0 -1.466666666666667 0  0.1333333333333333 -1.466666666666667 0  0.2666666666666666 -1.466666666666667 0  0.3999999999999999 -1.466666666666667 0  0.5333333333333332 -1.466666666666667 0  0.6666666666666665 -1.466666666666667 0  0.7999999999999998 -1.466666666666667 0  0.9333333333333331 -1.466666666666667 0  1.066666666666667 -1.466666666666667 0  1.2 -1.466666666666667 0  1.333333333333333 -1.466666666666667 0  1.466666666666667 -1.466666666666667 0  1.6 -1.466666666666667 0  1.733333333333333 -1.466666666666667 0  1.866666666666667 -1.466666666666667 0  2 -1.466666666666667 0  -2 -1.333333333333333 0  -1.866666666666667 -1.333333333333333 0  -1.733333333333333 -1.333333333333333 0  -1.6 -1.333333333333333 0  -1.466666666666667 -1.333333333333333 0  -1.333333333333333 -1.333333333333333 0  -1.2 -1.333333333333333 0  -1.066666666666667 -1.333333333333333 0  -0.9333333333333333 -1.333333333333333 0  -0.8 -1.333333333333333 0  -0.6666666666666667 -1.333333333333333 0  -0.5333333333333334 -1.333333333333333 0  -0.3999999999999999 -1.333333333333333 0  -0.2666666666666666 -1.333333333333333 0  -0.1333333333333333 -1.333333333333333 0  0 -1.333333333333333 0  0.1333333333333333 -1.333333333333333 0  0.2666666666666666 -1.333333333333333 0  0.3999999999999999 -1.333333333333333 0  0.5333333333333332 -1.333333333333333 0  0.6666666666666665 -1.333333333333333 0  0.7999999999999998 -1.333333333333333 0  0.9333333333333331 -1.333333333333333 0  1.066666666666667 -1.333333333333333 0  1.2 -1.333333333333333 0  1.333333333333333 -1.333333333333333 0  1.466666666666667 -1.333333333333333 0  1.6 -1.333333333333333 0  1.733333333333333 -1.333333333333333 0  1.866666666666667 -1.333333333333333 0  2 -1.333333333333333 0  -2 -1.2 0  -1.866666666666667 -1.2 0  -1.733333333333333 -1.2 0  -1.6 -1.2 0  -1.466666666666667 -1.2 0  -1.333333333333333 -1.2 0  -1.2 -1.2 0  -1.066666666666667 -1.2 0  -0.9333333333333333 -1.2 0  -0.8 -1.2 0  -0.6666666666666667 -1.2 0  -0.5333333333333334 -1.2 0  -0.3999999999999999 -1.2 0  -0.2666666666666666 -1.2 0  -0.1333333333333333 -1.2 0  0 -1.2 0  0.1333333333333333 -1.2 0  0.2666666666666666 -1.2 0  0.3999999999999999 -1.2 0  0.5333333333333332 -1.2 0  0.6666666666666665 -1.2 0  0.7999999999999998 -1.2 0  0.9333333333333331 -1.2 0  1.066666666666667 -1.2 0  1.2 -1.2 0  1.333333333333333 -1.2 0  1.466666666666667 -1.2 0  1.6 -1.2 0  1.733333333333333 -1.2 0  1.866666666666667 -1.2 0  2 -1.2 0  -2 -1.066666666666667 0  -1.866666666666667 -1.066666666666667 0  -1.733333333333333 -1.066666666666667 0  -1.6 -1.066666666666667 0  -1.466666666666667 -1.066666666666667 0  -1.333333333333333 -1.066666666666667 0  -1.2 -1.066666666666667 0  -1.066666666666667 -1.066666666666667 0  -0.9333333333333333 -1.066666666666667 0  -0.8 -1.066666666666667 0  -0.6666666666666667 -1.066666666666667 0  -0.5333333333333334 -1.066666666666667 0  -0.3999999999999999 -1.066666666666667 0  -0.2666666666666666 -1.066666666666667 0  -0.1333333333333333 -1.066666666666667 0  0 -1.066666666666667 0  0.1333333333333333 -1.066666666666667 0  0.2666666666666666 -1.066666666666667 0  0.3999999999999999 -1.066666666666667 0  0.5333333333333332 -1.066666666666667 0  0.6666666666666665 -1.066666666666667 0  0.7999999999999998 -1.066666666666667 0  0.9333333333333331 -1.066666666666667 0  1.066666666666667 -1.066666666666667 0  1.2 -1.066666666666667 0  1.333333333333333 -1.066666666666667 0  1.466666666666667 -1.066666666666667 0  1.6 -1.066666666666667 0  1.733333333333333 -1.066666666666667 0  1.866666666666667 -1.066666666666667 0  2 -1.066666666666667 0  -2 -0.9333333333333333 0  -1.866666666666667 -0.9333333333333333 0  -1.733333333333333 -0.9333333333333333 0  -1.6 -0.9333333333333333 0  -1.466666666666667 -0.9333333333333333 0  -1.333333333333333 -0.9333333333333333 0  -1.2 -0.9333333333333333 0  -1.066666666666667 -0.9333333333333333 0  -0.9333333333333333 -0.9333333333333333 0  -0.8 -0.9333333333333333 0  -0.6666666666666667 -0.9333333333333333 0  -0.5333333333333334 -0.9333333333333333 0  -0.3999999999999999 -0.9333333333333333 0  -0.2666666666666666 -0.9333333333333333 0  -0.1333333333333333 -0.9333333333333333 0  0 -0.9333333333333333 0  0.1333333333333333 -0.9333333333333333 0  0.2666666666666666 -0.9333333333333333 0  0.3999999999999999 -0.9333333333333333 0  0.5333333333333332 -0.9333333333333333 0  0.6666666666666665 -0.9333333333333333 0  0.7999999999999998 -0.9333333333333333 0  0.9333333333333331 -0.9333333333333333 0  1.066666666666667 -0.9333333333333333 0  1.2 -0.9333333333333333 0  1.333333333333333 -0.9333333333333333 0  1.466666666666667 -0.9333333333333333 0  1.6 -0.9333333333333333 0  1.733333333333333 -0.9333333333333333 0  1.866666666666667 -0.9333333333333333 0  2 -0.9333333333333333 0  -2 -0.8 0  -1.866666666666667 -0.8 0  -1.733333333333333 -0.8 0  -1.6 -0.8 0  -1.466666666666667 -0.8 0  -1.333333333333333 -0.8 0  -1.2 -0.8 0  -1.066666666666667 -0.8 0  -0.9333333333333333 -0.8 0  -0.8 -0.8 0  -0.6666666666666667 -0.8 0  -0.5333333333333334 -0.8 0  -0.3999999999999999 -0.8 0  -0.2666666666666666 -0.8 0  -0.1333333333333333 -0.8 0  0 -0.8 0  0.1333333333333333 -0.8 0  0.2666666666666666 -0.8 0  0.3999999999999999 -0.8 0  0.5333333333333332 -0.8 0  0.6666666666666665 -0.8 0  0.7999999999999998 -0.8 0  0.9333333333333331 -0.8 0  1.066666666666667 -0.8 0  1.2 -0.8 0  1.333333333333333 -0.8 0  1.466666666666667 -0.8 0  1.6 -0.8 0  1.733333333333333 -0.8 0  1.866666666666667 -0.8 0  2 -0.8 0  -2 -0.6666666666666667 0  -1.866666666666667 -0.
[...]
<PointData  Scalars="f_8002"> 
<DataArray  type="Float64"  Name="f_8002"  format="ascii">0.0000000000000000e+00  0.0000000000000000e+00  0.0000000000000000e+00  0.0000000000000000e+00  0.0000000000000000e+00  0.0000000000000000e+00  0.0000000000000000e+00  0.0000000000000000e+00  0.0000000000000000e+00  0.0000000000000000e+00  0.0000000000000000e+00  0.0000000000000000e+00  0.0000000000000000e+00  0.0000000000000000e+00  0.0000000000000000e+00  0.0000000000000000e+00  0.0000000000000000e+00  0.0000000000000000e+00  0.0000000000000000e+00  0.0000000000000000e+00  0.0000000000000000e+00  0.0000000000000000e+00  0.0000000000000000e+00  0.0000000000000000e+00  0.0000000000000000e+00  0.0000000000000000e+00  0.0000000000000000e+00  0.0000000000000000e+00  0.0000000000000000e+00  0.0000000000000000e+00  0.0000000000000000e+00  0.0000000000000000e+00  -3.2021411639957292e-01  -5.4523340996555814e-01  -7.1363628099879706e-01  -8.4389394483841706e-01  -9.4636787824929958e-01  -1.0276200823593644e+00  -1.0921761191310648e+00  -1.1433386865069191e+00  -1.1836039231693138e+00  -1.2148930488596594e+00  -1.2386899592503759e+00  -1.2561269924715075e+00  -1.2680400179790066e+00  -1.2750040377249297e+00  -1.2773554162551415e+00  -1.2752040756863106e+00  -1.2684373220116210e+00  -1.2567158113506116e+00  -1.2394611554301369e+00  -1.2158335056754621e+00  -1.1846957811543686e+00  -1.1445584165542422e+00  -1.0934934183103144e+00  -1.0289965293946777e+00  -9.4775518365538336e-01  -8.4523141166749938e-01  -7.1484658431788373e-01  -5.4621449700424274e-01  -3.2082126710943998e-01  0.0000000000000000e+00  0.0000000000000000e+00  -5.4523340996555814e-01  -9.5805055039238363e-01  -1.2777013143642337e+00  -1.5291146823807538e+00  -1.7286886165468056e+00  -1.8877710260725009e+00  -2.0145882834459292e+00  -2.1153202448826844e+00  -2.1947201924690432e+00  -2.2564873373610501e+00  -2.3034995664816824e+00  -2.3379635638570684e+00  -2.3615135351404155e+00  -2.3752760584809063e+00  -2.3799110283015934e+00  -2.3756342720959558e+00  -2.3622246728788316e+00  -2.3390166686590090e+00  -2.3048772717634063e+00  -2.2581647861129026e+00  -2.1966636454544854e+00  -2.1174853956918795e+00  -2.0169182654632816e+00  -1.8901940259699428e+00  -1.7311148722968659e+00  -1.5314323854095153e+00  -1.2797704456719370e+00  -9.5969276169886586e-01  -5.4621449700424296e-01  0.0000000000000000e+00  0.0000000000000000e+00  -7.1363628099879717e-01  -1.2777013143642344e+00  -1.7262934629169404e+00  -2.0849773091806587e+00  -2.3726767005130145e+00  -2.6035706337180837e+00  -2.7884886987208399e+00  -2.9358492584040472e+00  -3.0522752820612196e+00  -3.1429997283695044e+00  -3.2121358739870773e+00  -3.2628600473972207e+00  -3.2975359421560104e+00  -3.3177982782513498e+00  -3.3246065103258484e+00  -3.3182748076979620e+00  -3.2984815428628353e+00  -3.2642592966687789e+00  -3.2139643917807148e+00  -3.1452227335872562e+00  -3.0548457409147094e+00  -2.9387056607205224e+00  -2.7915524687045314e+00  -2.6067431189943759e+00  -2.3758355719471633e+00  -2.0879720251924980e+00  -1.7289391949665094e+00  -1.2797704456719370e+00  -7.1484658431788406e-01  0.0000000000000000e+00  0.0000000000000000e+00  -8.4389394483841706e-01  -1.5291146823807535e+00  -2.0849773091806574e+00  -2.5357406002836727e+00  -2.9009141144460799e+00  -3.1960731996206722e+00  -3.4336787461216844e+00  -3.6237437960376457e+00  -3.7743332172337265e+00  -3.8919261306295860e+00  -3.9816757164784602e+00  -4.0475946286735978e+00  -4.0926863523615395e+00  -4.1190362740857456e+00  -4.1278713771122799e+00  -4.1195940053718143e+00  -4.0937926133312832e+00  -4.0492304258504275e+00  -3.9838111089868193e+00  -3.8945185557166360e+00  -3.7773253565924376e+00  -3.6270610436590913e+00  -3.4372263217463952e+00  -3.1997329126883631e+00  -2.9045407195886050e+00  -2.5391576042380990e+00  -2.0879720251924985e+00  -1.5314323854095160e+00  -8.4523141166749971e-01  0.0000000000000000e+00  0.0000000000000000e+00  -9.4636787824929924e-01  -1.7286886165468058e+00  -2.3726767005130140e+00  -2.9009141144460795e+00  -3.3326226870922548e+00  -3.6839025297519168e+00  -3.9681346998804257e+00  -4.1963902706487923e+00  -4.3777839551705524e+00  -4.5197583812265361e+00  -4.6283043065885145e+00  -4.7081273892608673e+00  -4.7627718056413126e+00  -4.7947088949777656e+00  -4.8053966712537006e+00  -4.7953139991567575e+00  -4.7639715472629938e+00  -4.7099002031086723e+00  -4.6306162950681760e+00  -4.5225615344105083e+00  -4.3810139011014506e+00  -4.1999636429586831e+00  -3.9719462084388399e+00  -3.6878218061165673e+00  -3.3364909546946326e+00  -2.9045407195886046e+00  -2.3758355719471642e+00  -1.7311148722968663e+00  -9.4775518365538358e-01  0.0000000000000000e+00  0.0000000000000000e+00  -1.0276200823593635e+00  -1.8877710260724989e+00  -2.6035706337180820e+00  -3.1960731996206682e+00  -3.6839025297519132e+00  -4.0832170834216415e+00  -4.4078542259898494e+00  -4.6695439003940065e+00  -4.8781298624997849e+00  -5.0417698206208668e+00  -5.1671044253164693e+00  -5.2593938985264614e+00  -5.3226244970854495e+00  -5.3595877645904277e+00  -5.3719351727942346e+00  -5.3602100365506411e+00  -5.3238578151683065e+00  -5.2612151754669645e+00  -5.1694774742838847e+00  -5.0446435782945764e+00  -4.8814361632210881e+00  -4.6731949106959547e+00  -4.4117396605219179e+00  -4.0872013285739879e+00  -3.6878218061165660e+00  -3.1997329126883614e+00  -2.6067431189943746e+00  -1.8901940259699419e+00  -1.0289965293946772e+00  0.0000000000000000e+00  0.0000000000000000e+00  -1.0921761191310637e+00  -2.0145882834459261e+00  -2.7884886987208373e+00  -3.4336787461216800e+00  -3.9681346998804221e+00  -4.4078542259898486e+00  -4.7668529215006004e+00  -5.0572447863095578e+00  -5.2893594514570159e+00  -5.4718674361428219e+00  -5.6118979392232662e+00  -5.7151417329627821e+00  -5.7859360786592857e+00  -5.8273306727583849e+00  -5.8411344937811069e+00  -5.8279436863773872e+00  -5.7871506304450921e+00  -5.7169342634441733e+00  -5.6142316227062752e+00  -5.4746904930879605e+00  -5.2926030536992554e+00  -5.0608206788469809e+00  -4.7706509049632642e+00  -4.4117396605219135e+00  -3.9719462084388342e+00  -3.4372263217463908e+00  -2.7915524687045261e+00  -2.0169182654632780e+00  -1.0934934183103131e+00  0.0000000000000000e+00  0.0000000000000000e+00  -1.1433386865069186e+00  -2.1153202448826836e+00  -2.9358492584040481e+00  -3.6237437960376453e+00  -4.1963902706487914e+00  -4.6695439003940065e+00  -5.0572447863095595e+00  -5.3718127563655234e+00  -5.6238890095576739e+00  -5.8225010888767219e+00  -5.9751355785205904e+00  -6.0878087698893735e+00  -6.1651294009138047e+00  -6.2103499476341382e+00  -6.2254043663048009e+00  -6.2109310540099729e+00  -6.1662803801775867e+00  -6.0895065969155597e+00  -5.9773443552630292e+00  -5.8251705088555807e+00  -5.6269524686389918e+00  -5.3751852386998813e+00  -5.0608206788469818e+00  -4.6731949106959512e+00  -4.1999636429586786e+00  -3.6270610436590864e+00  -2.9387056607205175e+00  -2.1174853956918760e+00  -1.1445584165542404e+00  0.0000000000000000e+00  0.0000000000000000e+00  -1.1836039231693141e+00  -2.1947201924690432e+00  -3.0522752820612191e+00  -3.7743332172337283e+00  -4.3777839551705506e+00  -4.8781298624997840e+00  -5.2893594514570177e+00  -5.6238890095576766e+00  -5.8925518055426682e+00  -6.1046174069106938e+00  -6.2678275853718981e+00  -6.3884389270298394e+00  -6.4712651393215044e+00  -6.5197141658245954e+00  -6.5358167639381630e+00  -6.5202443678137572e+00  -6.4723150080315790e+00  -6.3899869003979273e+00  -6.2698401247898179e+00  -6.1070476550728499e+00  -5.8953379485998667e+00  -5.6269524686390016e+00  -5.2926030536992643e+00  -4.8814361632210916e+00  -4.3810139011014506e+00  -3.7773253565924381e+00  -3.0548457409147094e+00  -2.1966636454544854e+00  -1.1846957811543684e+00  0.0000000000000000e+00  0.0000000000000000e+00  -1.2148930488596594e+00  -2.2564873373610492e+00  -3.1429997283695026e+00  -3.8919261306295856e+00  -4.5197583812265352e+00  -5.0417698206208668e+00  -5.4718674361428246e+00  -5.8225010888767246e+00  -6.1046174069106947e+00  -6.3276459287890470e+00  -6.4995065424850100e+00  -6.6266291964607156e+00  -6.7139787520491225e+00  -6.7650795184083607e+00  -6.7820354511941803e+00  -6.7655432579807293e+00  -6.7148968017956161e+00  -6.6279822826933374e+00  -6.5012647474226961e+00  -6.3297675652465673e+00  -6.1070476550728596e+00  -5.8251705088555994e+00  -5.4746904930879774e+00  -5.0446435782945862e+00  -4.5225615344105128e+00  -3.8945185557166400e+00  -3.1452227335872593e+00  -2.2581647861129053e+00  -1.2158335056754634e+00  0.0000000000000000e+00  0.0000000000000000e+00  -1.2386899592503757e+00  -2.3034995664816811e+00  -3.2121358739870756e+00  -3.9816757164784584e+00  -4.6283043065885145e+00  -5.1671044253164693e+00  -5.6118979392232680e+00  -5.9751355785205931e+00  -6.2678275853719008e+00  -6.4995065424850127e+00  -6.6782137252424301e+00  -6.8105010878345933e+00  -6.9014420980205298e+00  -6.9546458600545229e+00  -6.9722702154160761e+00  -6.9550307553981350e+00  -6.9022039147050238e+00  -6.8116235448002955e+00  -6.6796715936163773e+00  -6.5012647474227059e+00  -6.2698401247898374e+00  -5.9773443552630559e+00  -5.6142316227062992e+00  -5.1694774742839007e+00  -4.6306162950681831e+00  -3.9838111089868278e+00  -3.2139643917807197e+00  -2.3048772717634107e+00  -1.2394611554301396e+00  0.0000000000000000e+00  0.0000000000000000e+00  -1.2561269924715064e+00  -2.3379635638570648e+00  -3.2628600473972162e+00  -4.0475946286735907e+00  -4.7081273892608593e+00  -5.2593938985264561e+00  -5.7151417329627785e+00  -6.0878087698893726e+00  -6.3884389270298403e+00  -6.6266291964607156e+00  -6.8105010878345906e+00  -6.9466896346117073e+00  -7.0403436613577703e+00  -7.0951318714700564e+00  -7.1132503727070651e+00  -7.0954284388303188e+00  -7.0409305624454248e+00  -6.9475541528442717e+00  -6.8116235448002911e+00  -6.6279822826933437e+00  -6.3899869003979433e+00  -6.0895065969155837e+00  -5.7169342634441991e+00  -5.2612151754669778e+00  -4.7099002031086776e+00  -4.0492304258504355e+00  -3.2642592966687856e+00  -2.3390166686590144e+00  -1.2567158113506145e+00  0.0000000000000000e+00  0.0000000000000000e+00  -1.2680400179790050e+00  -2.3615135351404120e+00  -3.2975359421560038e+00  -4.0926863523615307e+00  -4.7627718056413002e+00  -5.3226244970854397e+00  -5.7859360786592884e+00  -6.1651294009138118e+00  -6.4712651393215097e+00  -6.7139787520491225e+00  -6.9014420980205298e+00  -7.0403436613577774e+00  -7.1358815141740193e+00  -7.1917637551349900e+00  -7.2102120666262737e+00  -7.1919651465803058e+00  -7.1362800201434213e+00  -7.0409305624454177e+00  -6.9022039147050114e+00  -6.7148968017956161e+00  -6.4723150080315914e+00  -6.1662803801776080e+00  -5.7871506304451108e+00  -5.3238578151683180e+00  -4.7639715472629991e+00  -4.0937926133312912e+00  -3.2984815428628416e+00  -2.3622246728788356e+00  -1.2684373220116232e+00  0.0000000000000000e+00  0.0000000000000000e+00  -1.2750040377249281e+00  -2.3752760584809001e+00  -3.3177982782513387e+00  -4.1190362740857367e+00  -4.7947088949777568e+00  -5.3595877645904224e+00  -5.8273306727583831e+00  -6.2103499476341408e+00  -6.5197141658245998e+00  -6.7650795184083581e+00  -6.9546458600545185e+00  -7.0951318714700573e+00  -7.1917637551349909e+00  -7.2482723406079810e+00  -7.2668942855848329e+00  -7.2483741237920034e+00  -7.1919651465802961e+00  -7.0954284388303073e+00  -6.9550307553981190e+00  -6.7655432579807249e+00  -6.5202443678137652e+00  -6.2109310540099916e+00  -5.8279436863774050e+00  -5.3602100365506509e+00  -4.7953139991567637e+00  -4.1195940053718196e+00  -3.3182748076979660e+00  -2.3756342720959593e+00  -1.2752040756863126e+00  0.0000000000000000e+00  0.0000000000000000e+00  -1.2773554162551399e+00  -2.3799110283015894e+00  -3.3246065103258404e+00  -4.1278713771122728e+00  -4.8053966712536944e+00  -5.3719351727942311e+00  -5.8411344937811043e+00  -6.2254043663047964e+00  -6.5358167639381559e+00  -6.7820354511941723e+00  -6.9722702154160663e+00  -7.1132503727070588e+00  -7.2102120666262657e+00  -7.2668942855848293e+00  -7.2855393022281172e+00  -7.2668942855848266e+00  -7.2102120666262630e+00  -7.1132503727070517e+00  -6.9722702154160636e+00  -6.7820354511941767e+00  -6.5358167639381692e+00  -6.2254043663048151e+00  -5.8411344937811212e+00  -5.3719351727942435e+00  -4.8053966712537060e+00  -4.1278713771122826e+00  -3.3246065103258484e+00  -2.3799110283015956e+00  -1.2773554162551433e+00  0.0000000000000000e+00  0.0000000000000000e+00  -1.2752040756863090e+00  -2.3756342720959536e+00  -3.3182748076979580e+00  -4.1195940053718090e+00  -4.7953139991567522e+00  -5.3602100365506384e+00  -5.8279436863773846e+00  -6.2109310540099694e+00  -6.5202443678137465e+00  -6.7655432579807151e+00  -6.9550307553981154e+00  -7.0954284388303064e+00  -7.1919651465802907e+00  -7.2483741237919901e+00  -7.2668942855848222e+00  -7.2482723406079730e+00  -7.1917637551349802e+00  -7.0951318714700458e+00  -6.9546458600545158e+00  -6.7650795184083599e+00  -6.5197141658246052e+00  -6.2103499476341542e+00  -5.8273306727584009e+00  -5.3595877645904348e+00  -4.7947088949777683e+00  -4.1190362740857474e+00  -3.3177982782513511e+00  -2.3752760584809076e+00  -1.2750040377249314e+00  0.0000000000000000e+00  0.0000000000000000e+00  -1.2684373220116192e+00  -2.3622246728788294e+00  -3.2984815428628331e+00  -4.0937926133312814e+00  -4.7639715472629884e+00  -5.3238578151683047e+00  -5.7871506304450930e+00  -6.1662803801775850e+00  -6.4723150080315692e+00  -6.7148968017955983e+00  -6.9022039147050043e+00  -7.0409305624454115e+00  -7.1362800201434062e+00  -7.1919651465802783e+00  -7.2102120666262550e+00  -7.1917637551349776e+00  -7.1358815141740060e+00  -7.0403436613577579e+00  -6.9014420980205200e+00  -6.7139787520491243e+00  -6.4712651393215115e+00  -6.1651294009138207e+00  -5.7859360786593017e+00  -5.3226244970854575e+00  -4.7627718056413153e+00  -4.0926863523615413e+00  -3.2975359421560122e+00  -2.3615135351404164e+00  -1.2680400179790074e+00  0.0000000000000000e+00  0.0000000000000000e+00  -1.2567158113506109e+00  -2.3390166686590077e+00  -3.2642592966687767e+00  -4.0492304258504257e+00  -4.7099002031086696e+00  -5.2612151754669645e+00  -5.7169342634441751e+00  -6.0895065969155562e+00  -6.3899869003979193e+00  -6.6279822826933259e+00  -6.8116235448002795e+00  -6.9475541528442593e+00  -7.0409305624454070e+00  -7.0954284388302948e+00  -7.1132503727070437e+00  -7.0951318714700378e+00  -7.0403436613577561e+00  -6.9466896346116904e+00  -6.8105010878345782e+00  -6.6266291964607120e+00  -6.3884389270298456e+00  -6.0878087698893877e+00  -5.7151417329627954e+00  -5.2593938985264685e+00  -4.7081273892608708e+00  -4.0475946286735986e+00  -3.2628600473972220e+00  -2.3379635638570679e+00  -1.2561269924715079e+00  0.0000000000000000e+00  0.0000000000000000e+00  -1.2394611554301362e+00  -2.3048772717634050e+00  -3.2139643917807130e+00  -3.9838111089868189e+00  -4.6306162950681724e+00  -5.1694774742838856e+00  -5.6142316227062770e+00  -5.9773443552630274e+00  -6.2698401247898161e+00  -6.5012647474226890e+00  -6.6796715936163631e+00  -6.8116235448002813e+00  -6.9022039147049954e+00  -6.9550307553981039e+00  -6.9722702154160512e+00  -6.9546458600545034e+00  -6.9014420980205111e+00  -6.8105010878345738e+00  -6.6782137252424185e+00  -6.4995065424850091e+00  -6.2678275853719070e+00  -5.9751355785206064e+00  -5.6118979392232813e+00  -5.1671044253164817e+00  -4.6283043065885208e+00  -3.9816757164784624e+00  -3.2121358739870796e+00  -2.3034995664816824e+00  -1.2386899592503766e+00  0.0000000000000000e+00  0.0000000000000000e+00  -1.2158335056754614e+00  -2.2581647861129017e+00  -3.1452227335872545e+00  -3.8945185557166346e+00  -4.5225615344105092e+00  -5.0446435782945791e+00  -5.4746904930879614e+00  -5.8251705088555790e+00  -6.1070476550728445e+00  -6.3297675652465575e+00  -6.5012647474226934e+00  -6.6279822826933303e+00  -6.7148968017955992e+00  -6.7655432579807098e+00  -6.7820354511941625e+00  -6.7650795184083456e+00  -6.7139787520491092e+00  -6.6266291964607058e+00  -6.4995065424850038e+00  -6.3276459287890496e+00  -6.1046174069107044e+00  -5.8225010888767432e+00  -5.4718674361428414e+00  -5.0417698206208774e+00  -4.5197583812265414e+00  -3.8919261306295900e+00  -3.1429997283695057e+00  -2.2564873373610514e+00  -1.2148930488596605e+00  0.0000000000000000e+00  0.0000000000000000e+00  -1.1846957811543681e+00  -2.1966636454544846e+00  -3.0548457409147081e+00  -3.7773253565924350e+00  -4.3810139011014479e+00  -4.8814361632210881e+00  -5.2926030536992545e+00  -5.6269524686389900e+00  -5.8953379485998569e+00  -6.1070476550728463e+00  -6.2698401247898197e+00  -6.3899869003979264e+00  -6.4723150080315719e+00  -6.5202443678137492e+00  -6.5358167639381506e+00  -6.5197141658245892e+00  -6.4712651393214964e+00  -6.3884389270298314e+00  -6.2678275853718945e+00  -6.1046174069107000e+00  -5.8925518055426807e+00  -5.6238890095576943e+00  -5.2893594514570328e+00  -4.8781298624997964e+00  -4.3777839551705577e+00  -3.7743332172337336e+00  -3.0522752820612231e+00  -2.1947201924690454e+00  -1.1836039231693150e+00  0.0000000000000000e+00  0.0000000000000000e+00  -1.1445584165542402e+00  -2.1174853956918755e+00  -2.9387056607205184e+00  -3.6270610436590860e+00  -4.1999636429586795e+00  -4.6731949106959503e+00  -5.0608206788469721e+00  -5.3751852386998715e+00  -5.6269524686389891e+00  -5.8251705088555825e+00  -5.9773443552630354e+00  -6.0895065969155651e+00  -6.1662803801775876e+00  -6.2109310540099720e+00  -6.2254043663047947e+00  -6.2103499476341364e+00  -6.1651294009138029e+00  -6.0878087698893673e+00  -5.9751355785205886e+00  -5.8225010888767290e+00  -5.6238890095576863e+00  -5.3718127563655411e+00  -5.0572447863095737e+00  -4.6695439003940153e+00  -4.1963902706487985e+00  -3.6237437960376511e+00  -2.9358492584040508e+00  -2.1153202448826862e+00  -1.1433386865069202e+00  0.0000000000000000e+00  0.0000000000000000e+00  -1.0934934183103122e+00  -2.0169182654632767e+00  -2.7915524687045248e+00  -3.4372263217463868e+00  -3.9719462084388315e+00  -4.4117396605219099e+00  -4.7706509049632535e+00  -5.0608206788469694e+00  -5.2926030536992474e+00  -5.4746904930879614e+00  -5.6142316227062850e+00  -5.7169342634441831e+00  -5.7871506304450966e+00  -5.8279436863773855e+00  -5.8411344937811034e+00  -5.8273306727583813e+00  -5.7859360786592822e+00  -5.7151417329627741e+00  -5.6118979392232617e+00  -5.4718674361428246e+00  -5.2893594514570230e+00  -5.0572447863095720e+00  -4.7668529215006092e+00  -4.4078542259898521e+00  -3.9681346998804274e+00  -3.4336787461216849e+00  -2.7884886987208399e+00  -2.0145882834459279e+00  -1.0921761191310648e+00  0.0000000000000000e+00  0.0000000000000000e+00  -1.0289965293946759e+00  -1.8901940259699397e+00  -2.6067431189943711e+00  -3.1997329126883578e+00  -3.6878218061165620e+00  -4.0872013285739834e+00  -4.4117396605219081e+00  -4.6731949106959441e+00  -4.8814361632210819e+00  -5.0446435782945764e+00  -5.1694774742838883e+00  -5.2612151754669680e+00  -5.3238578151683065e+00  -5.3602100365506384e+00  -5.3719351727942311e+00  -5.3595877645904215e+00  -5.3226244970854451e+00  -5.2593938985264543e+00  -5.1671044253164649e+00  -5.0417698206208659e+00  -4.8781298624997884e+00  -4.6695439003940153e+00  -4.4078542259898548e+00  -4.0832170834216459e+00  -3.6839025297519172e+00  -3.1960731996206699e+00  -2.6035706337180824e+00  -1.8877710260724991e+00  -1.0276200823593638e+00  0.0000000000000000e+00  0.0000000000000000e+00  -9.4775518365538181e-01  -1.7311148722968639e+00  -2.3758355719471607e+00  -2.9045407195886019e+00  -3.3364909546946309e+00  -3.6878218061165637e+00  -3.9719462084388328e+00  -4.1999636429586760e+00  -4.3810139011014462e+00  -4.5225615344105075e+00  -4.6306162950681786e+00  -4.7099002031086741e+00  -4.7639715472629955e+00  -4.7953139991567593e+00  -4.8053966712537006e+00  -4.7947088949777603e+00  -4.7627718056413064e+00  -4.7081273892608611e+00  -4.6283043065885119e+00  -4.5197583812265361e+00  -4.3777839551705577e+00  -4.1963902706487994e+00  -3.9681346998804292e+00  -3.6839025297519