<?xml version="1.0"?>
<VTKFile type="UnstructuredGrid"  version="0.1"  >
<UnstructuredGrid>
<Piece  NumberOfPoints="961" NumberOfCells="1800">
<Points>
<DataArray  type="Float64"  NumberOfComponents="3"  format="ascii">-2 -2 0  -1.866666666666667 -2 0  -1.733333333333333 -2 0  -1.6 -2 0  -1.466666666666667 -2 0  -1.333333333333333 -2 0  -1.2 -2 0  -1.066666666666667 -2 0  -0.9333333333333333 -2 0  -0.8 -2 0  -0.6666666666666667 -2 0  -0.5333333333333334 -2 0  -0.3999999999999999 -2 0  -0.2666666666666666 -2 0  -0.1333333333333333 -2 0  0 -2 0  0.1333333333333333 -2 0  0.2666666666666666 -2 0  0.3999999999999999 -2 0  0.5333333333333332 -2 0  0.6666666666666665 -2 0  0.7999999999999998 -2 0  0.9333333333333331 -2 0  1.066666666666667 -2 0  1.2 -2 0  1.333333333333333 -2 0  1.466666666666667 -2 0  1.6 -2 0  1.733333333333333 -2 0  1.866666666666667 -2 0  2 -2 0  -2 -1.866666666666667 0  -1.866666666666667 -1.866666666666667 0  -1.733333333333333 -1.866666666666667 0  -1.6 -1.866666666666667 0  -1.466666666666667 -1.866666666666667 0  -1.333333333333333 -1.866666666666667 0  -1.2 -1.866666666666667 0  -1.066666666666667 -1.866666666666667 0  -0.9333333333333333 -1.866666666666667 0  -0.8 -1.866666666666667 0  -0.6666666666666667 -1.866666666666667 0  -0.5333333333333334 -1.866666666666667 0  -0.3999999999999999 -1.866666666666667 0  -0.2666666666666666 -1.866666666666667 0  -0.1333333333333333 -1.866666666666667 0  0 -1.866666666666667 0  0.1333333333333333 -1.866666666666667 0  0.2666666666666666 -1.866666666666667 0  0.3999999999999999 -1.866666666666667 0  0.5333333333333332 -1.866666666666667 0  0.6666666666666665 -1.866666666666667 0  0.7999999999999998 -1.866666666666667 0  0.9333333333333331 -1.866666666666667 0  1.066666666666667 -1.866666666666667 0  1.2 -1.866666666666667 0  1.333333333333333 -1.866666666666667 0  1.466666666666667 -1.866666666666667 0  1.6 -1.866666666666667 0  1.733333333333333 -1.866666666666667 0  1.866666666666667 -1.866666666666667 0  2 -1.866666666666667 0  -2 -1.733333333333333 0  -1.866666666666667 -1.733333333333333 0  -1.733333333333333 -1.733333333333333 0  -1.6 -1.733333333333333 0  -1.466666666666667 -1.733333333333333 0  -1.333333333333333 -1.733333333333333 0  -1.2 -1.733333333333333 0  -1.066666666666667 -1.733333333333333 0  -0.9333333333333333 -1.733333333333333 0  -0.8 -1.733333333333333 0  -0.6666666666666667 -1.733333333333333 0  -0.5333333333333334 -1.733333333333333 0  -0.3999999999999999 -1.733333333333333 0  -0.2666666666666666 -1.733333333333333 0  -0.1333333333333333 -1.733333333333333 0  0 -1.733333333333333 0  0.1333333333333333 -1.733333333333333 0  0.2666666666666666 -1.733333333333333 0  0.3999999999999999 -1.733333333333333 0  0.5333333333333332 -1.733333333333333 0  0.6666666666666665 -1.733333333333333 0  0.7999999999999998 -1.733333333333333 0  0.9333333333333331 -1.733333333333333 0  1.066666666666667 -1.733333333333333 0  1.2 -1.733333333333333 0  1.333333333333333 -1.733333333333333 0  1.466666666666667 -1.733333333333333 0  1.6 -1.733333333333333 0  1.733333333333333 -1.733333333333333 0  1.866666666666667 -1.733333333333333 0  2 -1.733333333333333 0  -2 -1.6 0  -1.866666666666667 -1.6 0  -1.733333333333333 -1.6 0  -1.6 -1.6 0  -1.466666666666667 -1.6 0  -1.333333333333333 -1.6 0  -1.2 -1.6 0  -1.066666666666667 -1.6 0  -0.9333333333333333 -1.6 0  -0.8 -1.6 0  -0.6666666666666667 -1.6 0  -0.5333333333333334 -1.6 0  -0.3999999999999999 -1.6 0  -0.2666666666666666 -1.6 0  -0.1333333333333333 -1.6 0  0 -1.6 0  0.1333333333333333 -1.6 0  0.2666666666666666 -1.6 0  0.3999999999999999 -1.6 0  0.5333333333333332 -1.6 0  0.6666666666666665 -1.6 0  0.7999999999999998 -1.6 0  0.9333333333333331 -1.6 0  1.066666666666667 -1.6 0  1.2 -1.6 0  1.333333333333333 -1.6 0  1.466666666666667 -1.6 0  1.6 -1.6 0  1.733333333333333 -1.6 0  1.866666666666667 -1.6 0  2 -1.6 0  -2 -1.466666666666667 0  -1.866666666666667 -1.466666666666667 0  -1.733333333333333 -1.466666666666667 0  -1.6 -1.466666666666667 0  -1.466666666666667 -1.466666666666667 0  -1.333333333333333 -1.466666666666667 0  -1.2 -1.466666666666667 0  -1.066666666666667 -1.466666666666667 0  -0.9333333333333333 -1.466666666666667 0  -0.8 -1.466666666666667 0  -0.6666666666666667 -1.466666666666667 0  -0.5333333333333334 -1.466666666666667 0  -0.3999999999999999 -1.466666666666667 0  -0.2666666666666666 -1.466666666666667 0  -0.1333333333333333 -1.466666666666667 0  0 -1.466666666666667 0  0.1333333333333333 -1.466666666666667 0  0.2666666666666666 -1.466666666666667 0  0.3999999999999999 -1.466666666666667 0  0.5333333333333332 -1.466666666666667 0  0.6666666666666665 -1.466666666666667 0  0.7999999999999998 -1.466666666666667 0  0.9333333333333331 -1.466666666666667 0  1.066666666666667 -1.466666666666667 0  1.2 -1.466666666666667 0  1.333333333333333 -1.466666666666667 0  1.466666666666667 -1.466666666666667 0  1.6 -1.466666666666667 0  1.733333333333333 -1.466666666666667 0  1.866666666666667 -1.466666666666667 0  2 -1.466666666666667 0  -2 -1.333333333333333 0  -1.866666666666667 -1.333333333333333 0  -1.733333333333333 -1.333333333333333 0  -1.6 -1.333333333333333 0  -1.466666666666667 -1.333333333333333 0  -1.333333333333333 -1.333333333333333 0  -1.2 -1.333333333333333 0  -1.066666666666667 -1.333333333333333 0  -0.9333333333333333 -1.333333333333333 0  -0.8 -1.333333333333333 0  -0.6666666666666667 -1.333333333333333 0  -0.5333333333333334 -1.333333333333333 0  -0.3999999999999999 -1.333333333333333 0  -0.2666666666666666 -1.333333333333333 0  -0.1333333333333333 -1.333333333333333 0  0 -1.333333333333333 0  0.1333333333333333 -1.333333333333333 0  0.2666666666666666 -1.333333333333333 0  0.3999999999999999 -1.333333333333333 0  0.5333333333333332 -1.333333333333333 0  0.6666666666666665 -1.333333333333333 0  0.7999999999999998 -1.333333333333333 0  0.9333333333333331 -1.333333333333333 0  1.066666666666667 -1.333333333333333 0  1.2 -1.333333333333333 0  1.333333333333333 -1.333333333333333 0  1.466666666666667 -1.333333333333333 0  1.6 -1.333333333333333 0  1.733333333333333 -1.333333333333333 0  1.866666666666667 -1.333333333333333 0  2 -1.333333333333333 0  -2 -1.2 0  -1.866666666666667 -1.2 0  -1.733333333333333 -1.2 0  -1.6 -1.2 0  -1.466666666666667 -1.2 0  -1.333333333333333 -1.2 0  -1.2 -1.2 0  -1.066666666666667 -1.2 0  -0.9333333333333333 -1.2 0  -0.8 -1.2 0  -0.6666666666666667 -1.2 0  -0.5333333333333334 -1.2 0  -0.3999999999999999 -1.2 0  -0.2666666666666666 -1.2 0  -0.1333333333333333 -1.2 0  0 -1.2 0  0.1333333333333333 -1.2 0  0.2666666666666666 -1.2 0  0.3999999999999999 -1.2 0  0.5333333333333332 -1.2 0  0.6666666666666665 -1.2 0  0.7999999999999998 -1.2 0  0.9333333333333331 -1.2 0  1.066666666666667 -1.2 0  1.2 -1.2 0  1.333333333333333 -1.2 0  1.466666666666667 -1.2 0  1.6 -1.2 0  1.733333333333333 -1.2 0  1.866666666666667 -1.2 0  2 -1.2 0  -2 -1.066666666666667 0  -1.866666666666667 -1.066666666666667 0  -1.733333333333333 -1.066666666666667 0  -1.6 -1.066666666666667 0  -1.466666666666667 -1.066666666666667 0  -1.333333333333333 -1.066666666666667 0  -1.2 -1.066666666666667 0  -1.066666666666667 -1.066666666666667 0  -0.9333333333333333 -1.066666666666667 0  -0.8 -1.066666666666667 0  -0.6666666666666667 -1.066666666666667 0  -0.5333333333333334 -1.066666666666667 0  -0.3999999999999999 -1.066666666666667 0  -0.2666666666666666 -1.066666666666667 0  -0.1333333333333333 -1.066666666666667 0  0 -1.066666666666667 0  0.1333333333333333 -1.066666666666667 0  0.2666666666666666 -1.066666666666667 0  0.3999999999999999 -1.066666666666667 0  0.5333333333333332 -1.066666666666667 0  0.6666666666666665 -1.066666666666667 0  0.7999999999999998 -1.066666666666667 0  0.9333333333333331 -1.066666666666667 0  1.066666666666667 -1.066666666666667 0  1.2 -1.066666666666667 0  1.333333333333333 -1.066666666666667 0  1.466666666666667 -1.066666666666667 0  1.6 -1.066666666666667 0  1.733333333333333 -1.066666666666667 0  1.866666666666667 -1.066666666666667 0  2 -1.066666666666667 0  -2 -0.9333333333333333 0  -1.866666666666667 -0.9333333333333333 0  -1.733333333333333 -0.9333333333333333 0  -1.6 -0.9333333333333333 0  -1.466666666666667 -0.9333333333333333 0  -1.333333333333333 -0.9333333333333333 0  -1.2 -0.9333333333333333 0  -1.066666666666667 -0.9333333333333333 0  -0.9333333333333333 -0.9333333333333333 0  -0.8 -0.9333333333333333 0  -0.6666666666666667 -0.9333333333333333 0  -0.5333333333333334 -0.9333333333333333 0  -0.3999999999999999 -0.9333333333333333 0  -0.2666666666666666 -0.9333333333333333 0  -0.1333333333333333 -0.9333333333333333 0  0 -0.9333333333333333 0  0.1333333333333333 -0.9333333333333333 0  0.2666666666666666 -0.9333333333333333 0  0.3999999999999999 -0.9333333333333333 0  0.5333333333333332 -0.9333333333333333 0  0.6666666666666665 -0.9333333333333333 0  0.7999999999999998 -0.9333333333333333 0  0.9333333333333331 -0.9333333333333333 0  1.066666666666667 -0.9333333333333333 0  1.2 -0.9333333333333333 0  1.333333333333333 -0.9333333333333333 0  1.466666666666667 -0.9333333333333333 0  1.6 -0.9333333333333333 0  1.733333333333333 -0.9333333333333333 0  1.866666666666667 -0.9333333333333333 0  2 -0.9333333333333333 0  -2 -0.8 0  -1.866666666666667 -0.8 0  -1.733333333333333 -0.8 0  -1.6 -0.8 0  -1.466666666666667 -0.8 0  -1.333333333333333 -0.8 0  -1.2 -0.8 0  -1.066666666666667 -0.8 0  -0.9333333333333333 -0.8 0  -0.8 -0.8 0  -0.6666666666666667 -0.8 0  -0.5333333333333334 -0.8 0  -0.3999999999999999 -0.8 0  -0.2666666666666666 -0.8 0  -0.1333333333333333 -0.8 0  0 -0.8 0  0.1333333333333333 -0.8 0  0.2666666666666666 -0.8 0  0.3999999999999999 -0.8 0  0.5333333333333332 -0.8 0  0.6666666666666665 -0.8 0  0.7999999999999998 -0.8 0  0.9333333333333331 -0.8 0  1.066666666666667 -0.8 0  1.2 -0.8 0  1.333333333333333 -0.8 0  1.466666666666667 -0.8 0  1.6 -0.8 0  1.733333333333333 -0.8 0  1.866666666666667 -0.8 0  2 -0.8 0  -2 -0.6666666666666667 0  -1.866666666666667 -0.
[...]
<PointData  Scalars="f_8002"> 
<DataArray  type="Float64"  Name="f_8002"  format="ascii">0.0000000000000000e+00  0.0000000000000000e+00  0.0000000000000000e+00  0.0000000000000000e+00  0.0000000000000000e+00  0.0000000000000000e+00  0.0000000000000000e+00  0.0000000000000000e+00  0.0000000000000000e+00  0.0000000000000000e+00  0.0000000000000000e+00  0.0000000000000000e+00  0.0000000000000000e+00  0.0000000000000000e+00  0.0000000000000000e+00  0.0000000000000000e+00  0.0000000000000000e+00  0.0000000000000000e+00  0.0000000000000000e+00  0.0000000000000000e+00  0.0000000000000000e+00  0.0000000000000000e+00  0.0000000000000000e+00  0.0000000000000000e+00  0.0000000000000000e+00  0.0000000000000000e+00  0.0000000000000000e+00  0.0000000000000000e+00  0.0000000000000000e+00  0.0000000000000000e+00  0.0000000000000000e+00  0.0000000000000000e+00  -3.0649667753710336e-01  -5.1802498951297671e-01  -6.7333748596195642e-01  -7.9107305838152853e-01  -8.8174556616725752e-01  -9.5204924813218395e-01  -1.0066193731189752e+00  -1.0488453860409679e+00  -1.0812884111132242e+00  -1.1059153651843052e+00  -1.1242398932818054e+00  -1.1374119048876630e+00  -1.1462764266850811e+00  -1.1514125644197519e+00  -1.1531583579196292e+00  -1.1516246164216080e+00  -1.1466992476184950e+00  -1.1380425384536277e+00  -1.1250729415131078e+00  -1.1069418650311229e+00  -1.0824943884711753e+00  -1.0502101216552417e+00  -1.0081134000677201e+00  -9.5363205072265755e-01  -8.8336282794724263e-01  -7.9265302785460956e-01  -6.7478537118400050e-01  -5.1921260614730658e-01  -3.0723974363441953e-01  0.0000000000000000e+00  0.0000000000000000e+00  -5.1802498951297682e-01  -9.0406203533287344e-01  -1.1977196285376936e+00  -1.4242638984238774e+00  -1.6003971042703740e+00  -1.7377306802451751e+00  -1.8447095266311528e+00  -1.9276863335752907e+00  -1.9915439422445937e+00  -2.0400727579332152e+00  -2.0762101166734013e+00  -2.1021978765152212e+00  -2.1196886034282691e+00  -2.1298170887674095e+00  -2.1332465061231436e+00  -2.1301942945993426e+00  -2.1204402975861041e+00  -2.1033179274586220e+00  -2.0776876059684204e+00  -2.0418899710962193e+00  -1.9936737801008491e+00  -1.9300892073913669e+00  -1.8473297822009622e+00  -1.7404925288467472e+00  -1.6031998795620237e+00  -1.4269761315682195e+00  -1.2001707965734321e+00  -9.0602964051995660e-01  -5.1921260614730669e-01  0.0000000000000000e+00  0.0000000000000000e+00  -6.7333748596195653e-01  -1.1977196285376943e+00  -1.6077842679872385e+00  -1.9295997100875044e+00  -2.1825430265431693e+00  -2.3811852653557350e+00  -2.5366810914243612e+00  -2.6577061096045123e+00  -2.7510763312428823e+00  -2.8221608243688947e+00  -2.8751618193873254e+00  -2.9133084724479010e+00  -2.9389921982590512e+00  -2.9538601826605300e+00  -2.9588768023667082e+00  -2.9543584494871520e+00  -2.9399845493511103e+00  -2.9147856300271480e+00  -2.8771076112818346e+00  -2.8245495511400676e+00  -2.7538693775119536e+00  -2.6608478937811237e+00  -2.5400944419717879e+00  -2.3847662625317780e+00  -2.1861552286407457e+00  -1.9330674615827976e+00  -1.6108844465776120e+00  -1.2001707965734323e+00  -6.7478537118400062e-01  0.0000000000000000e+00  0.0000000000000000e+00  -7.9107305838152842e-01  -1.4242638984238769e+00  -1.9295997100875035e+00  -2.3320029192602632e+00  -2.6515795799853668e+00  -2.9044208886334744e+00  -3.1034156138467508e+00  -3.2589157042260650e+00  -3.3792407456561944e+00  -3.4710498783804953e+00  -3.5396143536551676e+00  -3.5890173294273207e+00  -3.6222995993060612e+00  -3.6415635165097608e+00  -3.6480427609420132e+00  -3.6421424459024219e+00  -3.6234518979463410e+00  -3.5907308378600713e+00  -3.5418682650051228e+00  -3.4738117438730662e+00  -3.3824626301804250e+00  -3.2625296182513961e+00  -3.1073283633685040e+00  -2.9085084716461020e+00  -2.6556812040061057e+00  -2.3359146206050942e+00  -1.9330674615827981e+00  -1.4269761315682199e+00  -7.9265302785460956e-01  0.0000000000000000e+00  0.0000000000000000e+00  -8.8174556616725730e-01  -1.6003971042703740e+00  -2.1825430265431680e+00  -2.6515795799853663e+00  -3.0274604243741439e+00  -3.3269187611818225e+00  -3.5638611715778854e+00  -3.7497755065882719e+00  -3.8940903348176326e+00  -4.0044707455402548e+00  -4.0870540493945775e+00  -4.1466340163713333e+00  -4.1868019536676373e+00  -4.2100509729517190e+00  -4.2178477545485764e+00  -4.2106744570462773e+00  -4.1880421773835339e+00  -4.1484764072266342e+00  -4.0894740722914973e+00  -4.0074307859960498e+00  -3.8975357105816730e+00  -3.7536297617229857e+00  -3.5680208448598547e+00  -3.3312478435286654e+00  -3.0317847233629931e+00  -2.6556812040061049e+00  -2.1861552286407462e+00  -1.6031998795620241e+00  -8.8336282794724263e-01  0.0000000000000000e+00  0.0000000000000000e+00  -9.5204924813218306e-01  -1.7377306802451733e+00  -2.3811852653557337e+00  -2.9044208886334721e+00  -3.3269187611818216e+00  -3.6655795570712453e+00  -3.9348573857589808e+00  -4.1469720655998890e+00  -4.3121370880278951e+00  -4.4387731057390685e+00  -4.5336948640386217e+00  -4.6022680748657727e+00  -4.6485361213963632e+00  -4.6753174285968919e+00  -4.6842743255747781e+00  -4.6759539554632275e+00  -4.6498015265301662e+00  -4.6041460024095313e+00  -4.5361581662647534e+00  -4.4417808035889630e+00  -4.3156304948842541e+00  -4.1508702463653657e+00  -3.9390521785265085e+00  -3.6699304338284873e+00  -3.3312478435286641e+00  -2.9085084716461003e+00  -2.3847662625317754e+00  -1.7404925288467463e+00  -9.5363205072265733e-01  0.0000000000000000e+00  0.0000000000000000e+00  -1.0066193731189748e+00  -1.8447095266311515e+00  -2.5366810914243598e+00  -3.1034156138467477e+00  -3.5638611715778845e+00  -3.9348573857589799e+00  -4.2311203154409371e+00  -4.4653212829426661e+00  -4.6482115944407658e+00  -4.7887627298748345e+00  -4.8943042291531738e+00  -4.9706492712880381e+00  -5.0222022777056079e+00  -5.0520451740101837e+00  -5.0620001930771714e+00  -5.0526678701671530e+00  -5.0234394620682199e+00  -4.9724835472564513e+00  -4.8967070810256024e+00  -4.7916917114897961e+00  -4.6516067547805395e+00  -4.4691010062055669e+00  -4.2351768183609888e+00  -3.9390521785265058e+00  -3.5680208448598498e+00  -3.1073283633684992e+00  -2.5400944419717826e+00  -1.8473297822009591e+00  -1.0081134000677190e+00  0.0000000000000000e+00  0.0000000000000000e+00  -1.0488453860409679e+00  -1.9276863335752914e+00  -2.6577061096045127e+00  -3.2589157042260650e+00  -3.7497755065882705e+00  -4.1469720655998898e+00  -4.4653212829426661e+00  -4.7177613494490398e+00  -4.9154025075288956e+00  -5.0676083016093774e+00  -5.1820902117827483e+00  -5.2650030980174662e+00  -5.3210327270007216e+00  -5.3534692657272869e+00  -5.3642624710477067e+00  -5.3540557236959234e+00  -5.3221972613175721e+00  -5.2667280786683239e+00  -5.1843470542604129e+00  -5.0703549840883531e+00  -4.9185804216040472e+00  -4.7212916550526254e+00  -4.4691010062055669e+00  -4.1508702463653639e+00  -3.7536297617229812e+00  -3.2625296182513908e+00  -2.6608478937811184e+00  -1.9300892073913638e+00  -1.0502101216552402e+00  0.0000000000000000e+00  0.0000000000000000e+00  -1.0812884111132242e+00  -1.9915439422445937e+00  -2.7510763312428823e+00  -3.3792407456561957e+00  -3.8940903348176312e+00  -4.3121370880278951e+00  -4.6482115944407658e+00  -4.9154025075288983e+00  -5.1250543689960795e+00  -5.2868043160003424e+00  -5.4086414583547500e+00  -5.4969760157081105e+00  -5.5567081675859180e+00  -5.5912889473344745e+00  -5.6027675145425606e+00  -5.5918208982146407e+00  -5.5577639170932294e+00  -5.4985385264008384e+00  -5.4106833645165588e+00  -5.2892858238420581e+00  -5.1279205971455148e+00  -4.9185804216040561e+00  -4.6516067547805466e+00  -4.3156304948842568e+00  -3.8975357105816730e+00  -3.3824626301804237e+00  -2.7538693775119532e+00  -1.9936737801008482e+00  -1.0824943884711749e+00  0.0000000000000000e+00  0.0000000000000000e+00  -1.1059153651843048e+00  -2.0400727579332152e+00  -2.8221608243688951e+00  -3.4710498783804953e+00  -4.0044707455402540e+00  -4.4387731057390685e+00  -4.7887627298748354e+00  -5.0676083016093818e+00  -5.2868043160003433e+00  -5.4561755071521718e+00  -5.5839090029475527e+00  -5.6766019829841206e+00  -5.7393144996735286e+00  -5.7756190724008301e+00  -5.7876405930248840e+00  -5.7760819670960579e+00  -5.7402327638475636e+00  -5.6779599736089841e+00  -5.5856817916412522e+00  -5.4583271804748295e+00  -5.2892858238420661e+00  -5.0703549840883690e+00  -4.7916917114898112e+00  -4.4417808035889710e+00  -4.0074307859960525e+00  -3.4738117438730685e+00  -2.8245495511400689e+00  -2.0418899710962206e+00  -1.1069418650311236e+00  0.0000000000000000e+00  0.0000000000000000e+00  -1.1242398932818047e+00  -2.0762101166733999e+00  -2.8751618193873241e+00  -3.5396143536551672e+00  -4.0870540493945775e+00  -4.5336948640386199e+00  -4.8943042291531738e+00  -5.1820902117827501e+00  -5.4086414583547535e+00  -5.5839090029475535e+00  -5.7162183093078216e+00  -5.8123003176139969e+00  -5.8773313659328057e+00  -5.9149733751664035e+00  -5.9274074486911204e+00  -5.9153559338785051e+00  -5.8780899560239197e+00  -5.8134214288769988e+00  -5.7176805502699155e+00  -5.5856817916412602e+00  -5.4106833645165757e+00  -5.1843470542604377e+00  -4.8967070810256255e+00  -4.5361581662647668e+00  -4.0894740722915017e+00  -3.5418682650051267e+00  -2.8771076112818377e+00  -2.0776876059684231e+00  -1.1250729415131093e+00  0.0000000000000000e+00  0.0000000000000000e+00  -1.1374119048876621e+00  -2.1021978765152185e+00  -2.9133084724478979e+00  -3.5890173294273171e+00  -4.1466340163713307e+00  -4.6022680748657709e+00  -4.9706492712880364e+00  -5.2650030980174671e+00  -5.4969760157081131e+00  -5.6766019829841214e+00  -5.8123003176139960e+00  -5.9108945971574078e+00  -5.9776428495027742e+00  -6.0162704518936199e+00  -6.0289987461894166e+00  -6.0165642318392436e+00  -5.9782252042192443e+00  -5.9117547887692190e+00  -5.8134214288769979e+00  -5.6779599736089894e+00  -5.4985385264008535e+00  -5.2667280786683461e+00  -4.9724835472564726e+00  -4.6041460024095437e+00  -4.1484764072266334e+00  -3.5907308378600713e+00  -2.9147856300271489e+00  -2.1033179274586238e+00  -1.1380425384536288e+00  0.0000000000000000e+00  0.0000000000000000e+00  -1.1462764266850807e+00  -2.1196886034282665e+00  -2.9389921982590472e+00  -3.6222995993060576e+00  -4.1868019536676320e+00  -4.6485361213963587e+00  -5.0222022777056079e+00  -5.3210327270007269e+00  -5.5567081675859233e+00  -5.7393144996735259e+00  -5.8773313659328057e+00  -5.9776428495027769e+00  -6.0455609409608408e+00  -6.0848533076972409e+00  -6.0977683495913251e+00  -6.0850523263603371e+00  -6.0459553555622794e+00  -5.9782252042192399e+00  -5.8780899560239144e+00  -5.7402327638475654e+00  -5.5577639170932400e+00  -5.3221972613175899e+00  -5.0234394620682377e+00  -4.6498015265301751e+00  -4.1880421773835366e+00  -3.6234518979463402e+00  -2.9399845493511112e+00  -2.1204402975861054e+00  -1.1466992476184961e+00  0.0000000000000000e+00  0.0000000000000000e+00  -1.1514125644197497e+00  -2.1298170887674042e+00  -2.9538601826605229e+00  -3.6415635165097533e+00  -4.2100509729517110e+00  -4.6753174285968884e+00  -5.0520451740101819e+00  -5.3534692657272887e+00  -5.5912889473344789e+00  -5.7756190724008292e+00  -5.9149733751664018e+00  -6.0162704518936199e+00  -6.0848533076972409e+00  -6.1245141026445600e+00  -6.1375170948084428e+00  -6.1246145410789268e+00  -6.0850523263603291e+00  -6.0165642318392356e+00  -5.9153559338784953e+00  -5.7760819670960570e+00  -5.5918208982146496e+00  -5.3540557236959385e+00  -5.0526678701671663e+00  -4.6759539554632328e+00  -4.2106744570462782e+00  -3.6421424459024214e+00  -2.9543584494871520e+00  -2.1301942945993426e+00  -1.1516246164216084e+00  0.0000000000000000e+00  0.0000000000000000e+00  -1.1531583579196267e+00  -2.1332465061231378e+00  -2.9588768023667007e+00  -3.6480427609420047e+00  -4.2178477545485693e+00  -4.6842743255747763e+00  -5.0620001930771705e+00  -5.3642624710477040e+00  -5.6027675145425606e+00  -5.7876405930248804e+00  -5.9274074486911141e+00  -6.0289987461894139e+00  -6.0977683495913215e+00  -6.1375170948084392e+00  -6.1505150609962138e+00  -6.1375170948084392e+00  -6.0977683495913189e+00  -6.0289987461894086e+00  -5.9274074486911124e+00  -5.7876405930248840e+00  -5.6027675145425686e+00  -5.3642624710477165e+00  -5.0620001930771821e+00  -4.6842743255747816e+00  -4.2178477545485755e+00  -3.6480427609420132e+00  -2.9588768023667078e+00  -2.1332465061231423e+00  -1.1531583579196292e+00  0.0000000000000000e+00  0.0000000000000000e+00  -1.1516246164216062e+00  -2.1301942945993386e+00  -2.9543584494871471e+00  -3.6421424459024143e+00  -4.2106744570462720e+00  -4.6759539554632257e+00  -5.0526678701671530e+00  -5.3540557236959216e+00  -5.5918208982146353e+00  -5.7760819670960499e+00  -5.9153559338784945e+00  -6.0165642318392374e+00  -6.0850523263603282e+00  -6.1246145410789179e+00  -6.1375170948084365e+00  -6.1245141026445555e+00  -6.0848533076972338e+00  -6.0162704518936110e+00  -5.9149733751663947e+00  -5.7756190724008301e+00  -5.5912889473344789e+00  -5.3534692657272993e+00  -5.0520451740101953e+00  -4.6753174285968973e+00  -4.2100509729517208e+00  -3.6415635165097613e+00  -2.9538601826605313e+00  -2.1298170887674091e+00  -1.1514125644197517e+00  0.0000000000000000e+00  0.0000000000000000e+00  -1.1466992476184934e+00  -2.1204402975861010e+00  -2.9399845493511059e+00  -3.6234518979463335e+00  -4.1880421773835295e+00  -4.6498015265301653e+00  -5.0234394620682217e+00  -5.3221972613175703e+00  -5.5577639170932223e+00  -5.7402327638475539e+00  -5.8780899560239073e+00  -5.9782252042192381e+00  -6.0459553555622723e+00  -6.0850523263603229e+00  -6.0977683495913135e+00  -6.0848533076972338e+00  -6.0455609409608337e+00  -5.9776428495027698e+00  -5.8773313659328013e+00  -5.7393144996735321e+00  -5.5567081675859242e+00  -5.3210327270007332e+00  -5.0222022777056186e+00  -4.6485361213963685e+00  -4.1868019536676409e+00  -3.6222995993060652e+00  -2.9389921982590530e+00  -2.1196886034282700e+00  -1.1462764266850818e+00  0.0000000000000000e+00  0.0000000000000000e+00  -1.1380425384536264e+00  -2.1033179274586198e+00  -2.9147856300271426e+00  -3.5907308378600642e+00  -4.1484764072266263e+00  -4.6041460024095331e+00  -4.9724835472564548e+00  -5.2667280786683230e+00  -5.4985385264008331e+00  -5.6779599736089752e+00  -5.8134214288769881e+00  -5.9117547887692110e+00  -5.9782252042192319e+00  -6.0165642318392303e+00  -6.0289987461894050e+00  -6.0162704518936101e+00  -5.9776428495027671e+00  -5.9108945971574016e+00  -5.8123003176139916e+00  -5.6766019829841232e+00  -5.4969760157081167e+00  -5.2650030980174778e+00  -4.9706492712880488e+00  -4.6022680748657780e+00  -4.1466340163713369e+00  -3.5890173294273215e+00  -2.9133084724479015e+00  -2.1021978765152203e+00  -1.1374119048876630e+00  0.0000000000000000e+00  0.0000000000000000e+00  -1.1250729415131069e+00  -2.0776876059684186e+00  -2.8771076112818315e+00  -3.5418682650051205e+00  -4.0894740722914964e+00  -4.5361581662647570e+00  -4.8967070810256050e+00  -5.1843470542604129e+00  -5.4106833645165553e+00  -5.5856817916412478e+00  -5.7176805502699004e+00  -5.8134214288769872e+00  -5.8780899560239002e+00  -5.9153559338784865e+00  -5.9274074486911061e+00  -5.9149733751663929e+00  -5.8773313659327950e+00  -5.8123003176139862e+00  -5.7162183093078145e+00  -5.5839090029475535e+00  -5.4086414583547571e+00  -5.1820902117827616e+00  -4.8943042291531853e+00  -4.5336948640386288e+00  -4.0870540493945837e+00  -3.5396143536551690e+00  -2.8751618193873258e+00  -2.0762101166734017e+00  -1.1242398932818054e+00  0.0000000000000000e+00  0.0000000000000000e+00  -1.1069418650311220e+00  -2.0418899710962184e+00  -2.8245495511400658e+00  -3.4738117438730649e+00  -4.0074307859960507e+00  -4.4417808035889648e+00  -4.7916917114897979e+00  -5.0703549840883504e+00  -5.2892858238420510e+00  -5.4583271804748215e+00  -5.5856817916412496e+00  -5.6779599736089787e+00  -5.7402327638475530e+00  -5.7760819670960464e+00  -5.7876405930248760e+00  -5.7756190724008238e+00  -5.7393144996735206e+00  -5.6766019829841134e+00  -5.5839090029475473e+00  -5.4561755071521736e+00  -5.2868043160003504e+00  -5.0676083016093978e+00  -4.7887627298748523e+00  -4.4387731057390774e+00  -4.0044707455402575e+00  -3.4710498783804979e+00  -2.8221608243688974e+00  -2.0400727579332170e+00  -1.1059153651843057e+00  0.0000000000000000e+00  0.0000000000000000e+00  -1.0824943884711737e+00  -1.9936737801008482e+00  -2.7538693775119527e+00  -3.3824626301804210e+00  -3.8975357105816699e+00  -4.3156304948842514e+00  -4.6516067547805378e+00  -4.9185804216040454e+00  -5.1279205971455042e+00  -5.2892858238420519e+00  -5.4106833645165615e+00  -5.4985385264008402e+00  -5.5577639170932276e+00  -5.5918208982146371e+00  -5.6027675145425579e+00  -5.5912889473344709e+00  -5.5567081675859145e+00  -5.4969760157081033e+00  -5.4086414583547482e+00  -5.2868043160003486e+00  -5.1250543689960910e+00  -4.9154025075289152e+00  -4.6482115944407818e+00  -4.3121370880279031e+00  -3.8940903348176379e+00  -3.3792407456562019e+00  -2.7510763312428868e+00  -1.9915439422445960e+00  -1.0812884111132255e+00  0.0000000000000000e+00  0.0000000000000000e+00  -1.0502101216552400e+00  -1.9300892073913638e+00  -2.6608478937811193e+00  -3.2625296182513908e+00  -3.7536297617229799e+00  -4.1508702463653613e+00  -4.4691010062055598e+00  -4.7212916550526156e+00  -4.9185804216040419e+00  -5.0703549840883531e+00  -5.1843470542604217e+00  -5.2667280786683328e+00  -5.3221972613175756e+00  -5.3540557236959261e+00  -5.3642624710477032e+00  -5.3534692657272851e+00  -5.3210327270007189e+00  -5.2650030980174609e+00  -5.1820902117827465e+00  -5.0676083016093854e+00  -4.9154025075289089e+00  -4.7177613494490585e+00  -4.4653212829426794e+00  -4.1469720655998978e+00  -3.7497755065882776e+00  -3.2589157042260708e+00  -2.6577061096045163e+00  -1.9276863335752936e+00  -1.0488453860409694e+00  0.0000000000000000e+00  0.0000000000000000e+00  -1.0081134000677183e+00  -1.8473297822009582e+00  -2.5400944419717817e+00  -3.1073283633684974e+00  -3.5680208448598494e+00  -3.9390521785265022e+00  -4.2351768183609790e+00  -4.4691010062055563e+00  -4.6516067547805315e+00  -4.7916917114897970e+00  -4.8967070810256121e+00  -4.9724835472564610e+00  -5.0234394620682261e+00  -5.0526678701671539e+00  -5.0620001930771723e+00  -5.0520451740101811e+00  -5.0222022777056043e+00  -4.9706492712880292e+00  -4.8943042291531684e+00  -4.7887627298748372e+00  -4.6482115944407729e+00  -4.4653212829426776e+00  -4.2311203154409460e+00  -3.9348573857589844e+00  -3.5638611715778876e+00  -3.1034156138467517e+00  -2.5366810914243612e+00  -1.8447095266311533e+00  -1.0066193731189754e+00  0.0000000000000000e+00  0.0000000000000000e+00  -9.5363205072265611e-01  -1.7404925288467441e+00  -2.3847662625317732e+00  -2.9085084716460976e+00  -3.3312478435286619e+00  -3.6699304338284837e+00  -3.9390521785265000e+00  -4.1508702463653551e+00  -4.3156304948842470e+00  -4.4417808035889612e+00  -4.5361581662647579e+00  -4.6041460024095358e+00  -4.6498015265301662e+00  -4.6759539554632266e+00  -4.6842743255747763e+00  -4.6753174285968884e+00  -4.6485361213963596e+00  -4.6022680748657665e+00  -4.5336948640386145e+00  -4.4387731057390667e+00  -4.3121370880278969e+00  -4.1469720655998961e+00  -3.9348573857589861e+00  -3.6655795570712502e+00  -3.3269187611818247e+00  -2.9044208886334735e+00  -2.3811852653557328e+00  -1.7377306802451742e+00  -9.5204924813218350e-01  0.0000000000000000e+00  0.0000000000000000e+00  -8.8336282794724108e-01  -1.6031998795620213e+00  -2.1861552286407431e+00  -2.6556812040061013e+00  -3.0317847233629900e+00  -3.3312478435286610e+00  -3.5680208448598476e+00  -3.7536297617229764e+00  -3.8975357105816677e+00  -4.0074307859960463e+00  -4.0894740722914964e+00  -4.1484764072266298e+00  -4.1880421773835339e+00  -4.2106744570462755e+00  -4.2178477545485711e+00  -4.2100509729517155e+00  -4.1868019536676337e+00  -4.1466340163713280e+00  -4.0870540493945731e+00  -4.0044707455402513e+00  -3.8940903348176366e+00  -3.7497755065882763e+00  -3.5638611715778890e+00  -3.3269187611818