<?xml version="1.0"?>
<VTKFile type="UnstructuredGrid"  version="0.1"  >
<UnstructuredGrid>
<Piece  NumberOfPoints="961" NumberOfCells="1800">
<Points>
<DataArray  type="Float64"  NumberOfComponents="3"  format="ascii">-2 -2 0  -1.866666666666667 -2 0  -1.733333333333333 -2 0  -1.6 -2 0  -1.466666666666667 -2 0  -1.333333333333333 -2 0  -1.2 -2 0  -1.066666666666667 -2 0  -0.9333333333333333 -2 0  -0.8 -2 0  -0.6666666666666667 -2 0  -0.5333333333333334 -2 0  -0.3999999999999999 -2 0  -0.2666666666666666 -2 0  -0.1333333333333333 -2 0  0 -2 0  0.1333333333333333 -2 0  0.2666666666666666 -2 0  0.3999999999999999 -2 0  0.5333333333333332 -2 0  0.6666666666666665 -2 0  0.7999999999999998 -2 0  0.9333333333333331 -2 0  1.066666666666667 -2 0  1.2 -2 0  1.333333333333333 -2 0  1.466666666666667 -2 0  1.6 -2 0  1.733333333333333 -2 0  1.866666666666667 -2 0  2 -2 0  -2 -1.866666666666667 0  -1.866666666666667 -1.866666666666667 0  -1.733333333333333 -1.866666666666667 0  -1.6 -1.866666666666667 0  -1.466666666666667 -1.866666666666667 0  -1.333333333333333 -1.866666666666667 0  -1.2 -1.866666666666667 0  -1.066666666666667 -1.866666666666667 0  -0.9333333333333333 -1.866666666666667 0  -0.8 -1.866666666666667 0  -0.6666666666666667 -1.866666666666667 0  -0.5333333333333334 -1.866666666666667 0  -0.3999999999999999 -1.866666666666667 0  -0.2666666666666666 -1.866666666666667 0  -0.1333333333333333 -1.866666666666667 0  0 -1.866666666666667 0  0.1333333333333333 -1.866666666666667 0  0.2666666666666666 -1.866666666666667 0  0.3999999999999999 -1.866666666666667 0  0.5333333333333332 -1.866666666666667 0  0.6666666666666665 -1.866666666666667 0  0.7999999999999998 -1.866666666666667 0  0.9333333333333331 -1.866666666666667 0  1.066666666666667 -1.866666666666667 0  1.2 -1.866666666666667 0  1.333333333333333 -1.866666666666667 0  1.466666666666667 -1.866666666666667 0  1.6 -1.866666666666667 0  1.733333333333333 -1.866666666666667 0  1.866666666666667 -1.866666666666667 0  2 -1.866666666666667 0  -2 -1.733333333333333 0  -1.866666666666667 -1.733333333333333 0  -1.733333333333333 -1.733333333333333 0  -1.6 -1.733333333333333 0  -1.466666666666667 -1.733333333333333 0  -1.333333333333333 -1.733333333333333 0  -1.2 -1.733333333333333 0  -1.066666666666667 -1.733333333333333 0  -0.9333333333333333 -1.733333333333333 0  -0.8 -1.733333333333333 0  -0.6666666666666667 -1.733333333333333 0  -0.5333333333333334 -1.733333333333333 0  -0.3999999999999999 -1.733333333333333 0  -0.2666666666666666 -1.733333333333333 0  -0.1333333333333333 -1.733333333333333 0  0 -1.733333333333333 0  0.1333333333333333 -1.733333333333333 0  0.2666666666666666 -1.733333333333333 0  0.3999999999999999 -1.733333333333333 0  0.5333333333333332 -1.733333333333333 0  0.6666666666666665 -1.733333333333333 0  0.7999999999999998 -1.733333333333333 0  0.9333333333333331 -1.733333333333333 0  1.066666666666667 -1.733333333333333 0  1.2 -1.733333333333333 0  1.333333333333333 -1.733333333333333 0  1.466666666666667 -1.733333333333333 0  1.6 -1.733333333333333 0  1.733333333333333 -1.733333333333333 0  1.866666666666667 -1.733333333333333 0  2 -1.733333333333333 0  -2 -1.6 0  -1.866666666666667 -1.6 0  -1.733333333333333 -1.6 0  -1.6 -1.6 0  -1.466666666666667 -1.6 0  -1.333333333333333 -1.6 0  -1.2 -1.6 0  -1.066666666666667 -1.6 0  -0.9333333333333333 -1.6 0  -0.8 -1.6 0  -0.6666666666666667 -1.6 0  -0.5333333333333334 -1.6 0  -0.3999999999999999 -1.6 0  -0.2666666666666666 -1.6 0  -0.1333333333333333 -1.6 0  0 -1.6 0  0.1333333333333333 -1.6 0  0.2666666666666666 -1.6 0  0.3999999999999999 -1.6 0  0.5333333333333332 -1.6 0  0.6666666666666665 -1.6 0  0.7999999999999998 -1.6 0  0.9333333333333331 -1.6 0  1.066666666666667 -1.6 0  1.2 -1.6 0  1.333333333333333 -1.6 0  1.466666666666667 -1.6 0  1.6 -1.6 0  1.733333333333333 -1.6 0  1.866666666666667 -1.6 0  2 -1.6 0  -2 -1.466666666666667 0  -1.866666666666667 -1.466666666666667 0  -1.733333333333333 -1.466666666666667 0  -1.6 -1.466666666666667 0  -1.466666666666667 -1.466666666666667 0  -1.333333333333333 -1.466666666666667 0  -1.2 -1.466666666666667 0  -1.066666666666667 -1.466666666666667 0  -0.9333333333333333 -1.466666666666667 0  -0.8 -1.466666666666667 0  -0.6666666666666667 -1.466666666666667 0  -0.5333333333333334 -1.466666666666667 0  -0.3999999999999999 -1.466666666666667 0  -0.2666666666666666 -1.466666666666667 0  -0.1333333333333333 -1.466666666666667 0  0 -1.466666666666667 0  0.1333333333333333 -1.466666666666667 0  0.2666666666666666 -1.466666666666667 0  0.3999999999999999 -1.466666666666667 0  0.5333333333333332 -1.466666666666667 0  0.6666666666666665 -1.466666666666667 0  0.7999999999999998 -1.466666666666667 0  0.9333333333333331 -1.466666666666667 0  1.066666666666667 -1.466666666666667 0  1.2 -1.466666666666667 0  1.333333333333333 -1.466666666666667 0  1.466666666666667 -1.466666666666667 0  1.6 -1.466666666666667 0  1.733333333333333 -1.466666666666667 0  1.866666666666667 -1.466666666666667 0  2 -1.466666666666667 0  -2 -1.333333333333333 0  -1.866666666666667 -1.333333333333333 0  -1.733333333333333 -1.333333333333333 0  -1.6 -1.333333333333333 0  -1.466666666666667 -1.333333333333333 0  -1.333333333333333 -1.333333333333333 0  -1.2 -1.333333333333333 0  -1.066666666666667 -1.333333333333333 0  -0.9333333333333333 -1.333333333333333 0  -0.8 -1.333333333333333 0  -0.6666666666666667 -1.333333333333333 0  -0.5333333333333334 -1.333333333333333 0  -0.3999999999999999 -1.333333333333333 0  -0.2666666666666666 -1.333333333333333 0  -0.1333333333333333 -1.333333333333333 0  0 -1.333333333333333 0  0.1333333333333333 -1.333333333333333 0  0.2666666666666666 -1.333333333333333 0  0.3999999999999999 -1.333333333333333 0  0.5333333333333332 -1.333333333333333 0  0.6666666666666665 -1.333333333333333 0  0.7999999999999998 -1.333333333333333 0  0.9333333333333331 -1.333333333333333 0  1.066666666666667 -1.333333333333333 0  1.2 -1.333333333333333 0  1.333333333333333 -1.333333333333333 0  1.466666666666667 -1.333333333333333 0  1.6 -1.333333333333333 0  1.733333333333333 -1.333333333333333 0  1.866666666666667 -1.333333333333333 0  2 -1.333333333333333 0  -2 -1.2 0  -1.866666666666667 -1.2 0  -1.733333333333333 -1.2 0  -1.6 -1.2 0  -1.466666666666667 -1.2 0  -1.333333333333333 -1.2 0  -1.2 -1.2 0  -1.066666666666667 -1.2 0  -0.9333333333333333 -1.2 0  -0.8 -1.2 0  -0.6666666666666667 -1.2 0  -0.5333333333333334 -1.2 0  -0.3999999999999999 -1.2 0  -0.2666666666666666 -1.2 0  -0.1333333333333333 -1.2 0  0 -1.2 0  0.1333333333333333 -1.2 0  0.2666666666666666 -1.2 0  0.3999999999999999 -1.2 0  0.5333333333333332 -1.2 0  0.6666666666666665 -1.2 0  0.7999999999999998 -1.2 0  0.9333333333333331 -1.2 0  1.066666666666667 -1.2 0  1.2 -1.2 0  1.333333333333333 -1.2 0  1.466666666666667 -1.2 0  1.6 -1.2 0  1.733333333333333 -1.2 0  1.866666666666667 -1.2 0  2 -1.2 0  -2 -1.066666666666667 0  -1.866666666666667 -1.066666666666667 0  -1.733333333333333 -1.066666666666667 0  -1.6 -1.066666666666667 0  -1.466666666666667 -1.066666666666667 0  -1.333333333333333 -1.066666666666667 0  -1.2 -1.066666666666667 0  -1.066666666666667 -1.066666666666667 0  -0.9333333333333333 -1.066666666666667 0  -0.8 -1.066666666666667 0  -0.6666666666666667 -1.066666666666667 0  -0.5333333333333334 -1.066666666666667 0  -0.3999999999999999 -1.066666666666667 0  -0.2666666666666666 -1.066666666666667 0  -0.1333333333333333 -1.066666666666667 0  0 -1.066666666666667 0  0.1333333333333333 -1.066666666666667 0  0.2666666666666666 -1.066666666666667 0  0.3999999999999999 -1.066666666666667 0  0.5333333333333332 -1.066666666666667 0  0.6666666666666665 -1.066666666666667 0  0.7999999999999998 -1.066666666666667 0  0.9333333333333331 -1.066666666666667 0  1.066666666666667 -1.066666666666667 0  1.2 -1.066666666666667 0  1.333333333333333 -1.066666666666667 0  1.466666666666667 -1.066666666666667 0  1.6 -1.066666666666667 0  1.733333333333333 -1.066666666666667 0  1.866666666666667 -1.066666666666667 0  2 -1.066666666666667 0  -2 -0.9333333333333333 0  -1.866666666666667 -0.9333333333333333 0  -1.733333333333333 -0.9333333333333333 0  -1.6 -0.9333333333333333 0  -1.466666666666667 -0.9333333333333333 0  -1.333333333333333 -0.9333333333333333 0  -1.2 -0.9333333333333333 0  -1.066666666666667 -0.9333333333333333 0  -0.9333333333333333 -0.9333333333333333 0  -0.8 -0.9333333333333333 0  -0.6666666666666667 -0.9333333333333333 0  -0.5333333333333334 -0.9333333333333333 0  -0.3999999999999999 -0.9333333333333333 0  -0.2666666666666666 -0.9333333333333333 0  -0.1333333333333333 -0.9333333333333333 0  0 -0.9333333333333333 0  0.1333333333333333 -0.9333333333333333 0  0.2666666666666666 -0.9333333333333333 0  0.3999999999999999 -0.9333333333333333 0  0.5333333333333332 -0.9333333333333333 0  0.6666666666666665 -0.9333333333333333 0  0.7999999999999998 -0.9333333333333333 0  0.9333333333333331 -0.9333333333333333 0  1.066666666666667 -0.9333333333333333 0  1.2 -0.9333333333333333 0  1.333333333333333 -0.9333333333333333 0  1.466666666666667 -0.9333333333333333 0  1.6 -0.9333333333333333 0  1.733333333333333 -0.9333333333333333 0  1.866666666666667 -0.9333333333333333 0  2 -0.9333333333333333 0  -2 -0.8 0  -1.866666666666667 -0.8 0  -1.733333333333333 -0.8 0  -1.6 -0.8 0  -1.466666666666667 -0.8 0  -1.333333333333333 -0.8 0  -1.2 -0.8 0  -1.066666666666667 -0.8 0  -0.9333333333333333 -0.8 0  -0.8 -0.8 0  -0.6666666666666667 -0.8 0  -0.5333333333333334 -0.8 0  -0.3999999999999999 -0.8 0  -0.2666666666666666 -0.8 0  -0.1333333333333333 -0.8 0  0 -0.8 0  0.1333333333333333 -0.8 0  0.2666666666666666 -0.8 0  0.3999999999999999 -0.8 0  0.5333333333333332 -0.8 0  0.6666666666666665 -0.8 0  0.7999999999999998 -0.8 0  0.9333333333333331 -0.8 0  1.066666666666667 -0.8 0  1.2 -0.8 0  1.333333333333333 -0.8 0  1.466666666666667 -0.8 0  1.6 -0.8 0  1.733333333333333 -0.8 0  1.866666666666667 -0.8 0  2 -0.8 0  -2 -0.6666666666666667 0  -1.866666666666667 -0.
[...]
<PointData  Scalars="f_8002"> 
<DataArray  type="Float64"  Name="f_8002"  format="ascii">0.0000000000000000e+00  0.0000000000000000e+00  0.0000000000000000e+00  0.0000000000000000e+00  0.0000000000000000e+00  0.0000000000000000e+00  0.0000000000000000e+00  0.0000000000000000e+00  0.0000000000000000e+00  0.0000000000000000e+00  0.0000000000000000e+00  0.0000000000000000e+00  0.0000000000000000e+00  0.0000000000000000e+00  0.0000000000000000e+00  0.0000000000000000e+00  0.0000000000000000e+00  0.0000000000000000e+00  0.0000000000000000e+00  0.0000000000000000e+00  0.0000000000000000e+00  0.0000000000000000e+00  0.0000000000000000e+00  0.0000000000000000e+00  0.0000000000000000e+00  0.0000000000000000e+00  0.0000000000000000e+00  0.0000000000000000e+00  0.0000000000000000e+00  0.0000000000000000e+00  0.0000000000000000e+00  0.0000000000000000e+00  -3.4372253325900742e-01  -5.9192071777028643e-01  -7.8291521316809587e-01  -9.3492105790466196e-01  -1.0580555100196254e+00  -1.1586541566257986e+00  -1.2410375900948942e+00  -1.3083271320901813e+00  -1.3628620980288846e+00  -1.4064314288980442e+00  -1.4404105391045037e+00  -1.4658458498483811e+00  -1.4835084221873880e+00  -1.4939281341380688e+00  -1.4974147420971868e+00  -1.4940693360598916e+00  -1.4837879634666233e+00  -1.4662579642441145e+00  -1.4409464730291188e+00  -1.4070793113796356e+00  -1.3636067560506793e+00  -1.3091498347046893e+00  -1.2419156891534269e+00  -1.1595605624184784e+00  -1.0589578813049758e+00  -9.3578046001987658e-01  -7.8368370326766768e-01  -5.9253655057523436e-01  -3.4409946197613789e-01  0.0000000000000000e+00  0.0000000000000000e+00  -5.9192071777028654e-01  -1.0508000386252874e+00  -1.4153568794190294e+00  -1.7100049564217572e+00  -1.9506544487880217e+00  -2.1482020822509051e+00  -2.3104661130903419e+00  -2.4432653668343045e+00  -2.5510410014608511e+00  -2.6372289655143382e+00  -2.7044912526686531e+00  -2.7548635710554188e+00  -2.7898511734469476e+00  -2.8104908743468764e+00  -2.8173896640231679e+00  -2.8107458443517213e+00  -2.7903557349867310e+00  -2.7556068895656103e+00  -2.7054568798187031e+00  -2.6383945951283616e+00  -2.5523781253538713e+00  -2.4447388034788662e+00  -2.3120333579777843e+00  -2.1498123857568956e+00  -1.9522474489659924e+00  -1.7115085475593543e+00  -1.4166837167719153e+00  -1.0518415466020645e+00  -5.9253655057523447e-01  0.0000000000000000e+00  0.0000000000000000e+00  -7.8291521316809598e-01  -1.4153568794190297e+00  -1.9306230024233002e+00  -2.3535071845666460e+00  -2.7022059596921078e+00  -2.9902266408459623e+00  -3.2277916672943543e+00  -3.4227824506785764e+00  -3.5813577889156658e+00  -3.7083591366338986e+00  -3.8075787063262228e+00  -3.8819385623692306e+00  -3.9336106400429069e+00  -3.9640961994629964e+00  -3.9742760688299210e+00  -3.9644384126818841e+00  -3.9342875824067067e+00  -3.8829351595934676e+00  -3.8088720792115556e+00  -3.7099182712485650e+00  -3.5831430773837165e+00  -3.4247450743952284e+00  -3.2298727706575692e+00  -2.9923562044292531e+00  -2.7043012187552025e+00  -2.3554703408000854e+00  -1.9323378364764514e+00  -1.4166837167719157e+00  -7.8368370326766779e-01  0.0000000000000000e+00  0.0000000000000000e+00  -9.3492105790466173e-01  -1.7100049564217565e+00  -2.3535071845666460e+00  -2.8886682250992575e+00  -3.3340385007656561e+00  -3.7043083426005827e+00  -4.0111389886054836e+00  -4.2638364015219299e+00  -4.4698542234415788e+00  -4.6351560137471726e+00  -4.7644721213243360e+00  -4.8614803232523371e+00  -4.9289315494545889e+00  -4.9687354294118933e+00  -4.9820154310223232e+00  -4.9691397041688745e+00  -4.9297309671584921e+00  -4.8626564955367684e+00  -4.7659971523745055e+00  -4.6369921189758712e+00  -4.4719532075034589e+00  -4.2661389747106924e+00  -4.0135738832831924e+00  -3.7067911654617989e+00  -3.3364702219324420e+00  -2.8909331657581494e+00  -2.3554703408000859e+00  -1.7115085475593546e+00  -9.3578046001987658e-01  0.0000000000000000e+00  0.0000000000000000e+00  -1.0580555100196254e+00  -1.9506544487880220e+00  -2.7022059596921073e+00  -3.3340385007656566e+00  -3.8641939053580376e+00  -4.3076838821578871e+00  -4.6769062400749615e+00  -4.9820626579766429e+00  -5.2315162649949150e+00  -5.4320756636974963e+00  -5.5892115546000829e+00  -5.7072176685158000e+00  -5.7893274958491387e+00  -5.8377961695118117e+00  -5.8539543893263870e+00  -5.8382390025644080e+00  -5.7902028691627851e+00  -5.7085048633397317e+00  -5.5908791602856249e+00  -5.4340811786773857e+00  -5.2338055615309100e+00  -4.9845693017447346e+00  -4.6795506466417125e+00  -4.3103722810766394e+00  -3.8668170726801376e+00  -3.3364702219324407e+00  -2.7043012187552025e+00  -1.9522474489659931e+00  -1.0589578813049758e+00  0.0000000000000000e+00  0.0000000000000000e+00  -1.1586541566257982e+00  -2.1482020822509025e+00  -2.9902266408459592e+00  -3.7043083426005796e+00  -4.3076838821578853e+00  -4.8152323893845672e+00  -5.2396354980621114e+00  -5.5916011626126325e+00  -5.8800895131842204e+00  -6.1125127113132631e+00  -6.2948997589853368e+00  -6.4320263193989815e+00  -6.5275131372155535e+00  -6.5838973861983900e+00  -6.6026807672444594e+00  -6.5843571966530803e+00  -6.5284218006981583e+00  -6.4333617886093064e+00  -6.2966286343633797e+00  -6.1145898530254952e+00  -5.8824575323681048e+00  -5.5941897959775595e+00  -5.2423608684443126e+00  -4.8179961547118584e+00  -4.3103722810766376e+00  -3.7067911654617967e+00  -2.9923562044292495e+00  -2.1498123857568943e+00  -1.1595605624184777e+00  0.0000000000000000e+00  0.0000000000000000e+00  -1.2410375900948931e+00  -2.3104661130903383e+00  -3.2277916672943516e+00  -4.0111389886054791e+00  -4.6769062400749579e+00  -5.2396354980621087e+00  -5.7120272450839540e+00  -6.1050323641185784e+00  -6.4279746349741540e+00  -6.6886757103284662e+00  -6.8935682135669083e+00  -7.0477909584891476e+00  -7.1552647829585672e+00  -7.2187495572801783e+00  -7.2398836188510343e+00  -7.2192068507441984e+00  -7.1561682355623741e+00  -7.0491181771177711e+00  -6.8952853018639644e+00  -6.6907369128443888e+00  -6.4303218820284727e+00  -6.1075947326904991e+00  -5.7147203548759284e+00  -5.2423608684443082e+00  -4.6795506466417089e+00  -4.0135738832831862e+00  -3.2298727706575630e+00  -2.3120333579777799e+00  -1.2419156891534253e+00  0.0000000000000000e+00  0.0000000000000000e+00  -1.3083271320901806e+00  -2.4432653668343032e+00  -3.4227824506785742e+00  -4.2638364015219281e+00  -4.9820626579766421e+00  -5.5916011626126325e+00  -6.1050323641185784e+00  -6.5333848664049281e+00  -6.8861829618768686e+00  -7.1715113591617534e+00  -7.3960827544022347e+00  -7.5653000696206743e+00  -7.6833091961765225e+00  -7.7530404337718437e+00  -7.7762380469097039e+00  -7.7534779003630128e+00  -7.6841732813389481e+00  -7.5665689658857866e+00  -7.3977234779804864e+00  -7.1734794394199834e+00  -6.8884220545828843e+00  -6.5358263139404089e+00  -6.1075947326905009e+00  -5.5941897959775577e+00  -4.9845693017447310e+00  -4.2661389747106870e+00  -3.4247450743952226e+00  -2.4447388034788617e+00  -1.3091498347046873e+00  0.0000000000000000e+00  0.0000000000000000e+00  -1.3628620980288841e+00  -2.5510410014608502e+00  -3.5813577889156649e+00  -4.4698542234415806e+00  -5.2315162649949132e+00  -5.8800895131842204e+00  -6.4279746349741567e+00  -6.8861829618768713e+00  -7.2643321641759391e+00  -7.5706653848559782e+00  -7.8120816660703296e+00  -7.9941694923570612e+00  -8.1212383169586193e+00  -8.1963450331942020e+00  -8.2213136939790292e+00  -8.1967475936028968e+00  -8.1220333016659474e+00  -7.9953365337091338e+00  -7.8135899808287919e+00  -7.5724735151301896e+00  -7.2663876636386684e+00  -6.8884220545828985e+00  -6.4303218820284860e+00  -5.8824575323681128e+00  -5.2338055615309118e+00  -4.4719532075034589e+00  -3.5831430773837178e+00  -2.5523781253538713e+00  -1.3636067560506790e+00  0.0000000000000000e+00  0.0000000000000000e+00  -1.4064314288980433e+00  -2.6372289655143377e+00  -3.7083591366338973e+00  -4.6351560137471717e+00  -5.4320756636974945e+00  -6.1125127113132631e+00  -6.6886757103284671e+00  -7.1715113591617587e+00  -7.5706653848559808e+00  -7.8944685812658637e+00  -8.1499384902260594e+00  -8.3427895187315144e+00  -8.4774463554105903e+00  -8.5570571968154958e+00  -8.5835045186264054e+00  -8.5574120101403253e+00  -8.4781469357751060e+00  -8.3438176953555576e+00  -8.1512668183691943e+00  -7.8960601353770441e+00  -7.5724735151302065e+00  -7.1734794394200074e+00  -6.6907369128444092e+00  -6.1145898530255076e+00  -5.4340811786773937e+00  -4.6369921189758783e+00  -3.7099182712485694e+00  -2.6383945951283647e+00  -1.4070793113796374e+00  0.0000000000000000e+00  0.0000000000000000e+00  -1.4404105391045030e+00  -2.7044912526686522e+00  -3.8075787063262210e+00  -4.7644721213243351e+00  -5.5892115546000820e+00  -6.2948997589853359e+00  -6.8935682135669074e+00  -7.3960827544022383e+00  -7.8120816660703323e+00  -8.1499384902260630e+00  -8.4167424084679183e+00  -8.6182902156002328e+00  -8.7590851900456759e+00  -8.8423393673677406e+00  -8.8699767474227027e+00  -8.8426358133234721e+00  -8.7596704483463999e+00  -8.6191489580390357e+00  -8.4178514966844400e+00  -8.1512668183692085e+00  -7.8135899808288212e+00  -7.3977234779805183e+00  -6.8952853018639972e+00  -6.2966286343634010e+00  -5.5908791602856391e+00  -4.7659971523745162e+00  -3.8088720792115627e+00  -2.7054568798187093e+00  -1.4409464730291224e+00  0.0000000000000000e+00  0.0000000000000000e+00  -1.4658458498483797e+00  -2.7548635710554161e+00  -3.8819385623692244e+00  -4.8614803232523300e+00  -5.7072176685157938e+00  -6.4320263193989771e+00  -7.0477909584891458e+00  -7.5653000696206743e+00  -7.9941694923570612e+00  -8.3427895187315144e+00  -8.6182902156002328e+00  -8.8265201010803302e+00  -8.9720340415730178e+00  -9.0580870708980008e+00  -9.0866316577071320e+00  -9.0583167175062655e+00  -8.9724873765423840e+00  -8.8271851634443994e+00  -8.6191489580390286e+00  -8.3438176953555665e+00  -7.9953365337091560e+00  -7.5665689658858177e+00  -7.0491181771178040e+00  -6.4333617886093259e+00  -5.7085048633397415e+00  -4.8626564955367781e+00  -3.8829351595934747e+00  -2.7556068895656169e+00  -1.4662579642441185e+00  0.0000000000000000e+00  0.0000000000000000e+00  -1.4835084221873871e+00  -2.7898511734469444e+00  -3.9336106400428994e+00  -4.9289315494545791e+00  -5.7893274958491272e+00  -6.5275131372155473e+00  -7.1552647829585672e+00  -7.6833091961765261e+00  -8.1212383169586246e+00  -8.4774463554105868e+00  -8.7590851900456670e+00  -8.9720340415730160e+00  -9.1208797771177608e+00  -9.2089047788647687e+00  -9.2380799777127933e+00  -9.2090613450586414e+00  -9.1211888258325384e+00  -8.9724873765423769e+00  -8.7596704483463892e+00  -8.4781469357751078e+00  -8.1220333016659634e+00  -7.6841732813389756e+00  -7.1561682355623990e+00  -6.5284218006981769e+00  -5.7902028691627949e+00  -4.9297309671585019e+00  -3.9342875824067129e+00  -2.7903557349867358e+00  -1.4837879634666260e+00  0.0000000000000000e+00  0.0000000000000000e+00  -1.4939281341380675e+00  -2.8104908743468715e+00  -3.9640961994629875e+00  -4.9687354294118844e+00  -5.8377961695118037e+00  -6.5838973861983856e+00  -7.2187495572801739e+00  -7.7530404337718437e+00  -8.1963450331942109e+00  -8.5570571968154940e+00  -8.8423393673677335e+00  -9.0580870708979990e+00  -9.2089047788647687e+00  -9.2980902565666028e+00  -9.3276250719668763e+00  -9.2981695773566599e+00  -9.2090613450586307e+00  -9.0583167175062531e+00  -8.8426358133234579e+00  -8.5574120101403270e+00  -8.1967475936029075e+00  -7.7534779003630376e+00  -7.2192068507442206e+00  -6.5843571966530954e+00  -5.8382390025644151e+00  -4.9691397041688816e+00  -3.9644384126818886e+00  -2.8107458443517253e+00  -1.4940693360598936e+00  0.0000000000000000e+00  0.0000000000000000e+00  -1.4974147420971846e+00  -2.8173896640231626e+00  -3.9742760688299139e+00  -4.9820154310223144e+00  -5.8539543893263781e+00  -6.6026807672444576e+00  -7.2398836188510263e+00  -7.7762380469096968e+00  -8.2213136939790221e+00  -8.5835045186263965e+00  -8.8699767474226903e+00  -9.0866316577071249e+00  -9.2380799777127880e+00  -9.3276250719668674e+00  -9.3572526145482104e+00  -9.3276250719668656e+00  -9.2380799777127809e+00  -9.0866316577071178e+00  -8.8699767474226920e+00  -8.5835045186264090e+00  -8.2213136939790381e+00  -7.7762380469097225e+00  -7.2398836188510485e+00  -6.6026807672444727e+00  -5.8539543893263932e+00  -4.9820154310223295e+00  -3.9742760688299255e+00  -2.8173896640231706e+00  -1.4974147420971891e+00  0.0000000000000000e+00  0.0000000000000000e+00  -1.4940693360598893e+00  -2.8107458443517168e+00  -3.9644384126818784e+00  -4.9691397041688674e+00  -5.8382390025643982e+00  -6.5843571966530785e+00  -7.2192068507441958e+00  -7.7534779003630057e+00  -8.1967475936028844e+00  -8.5574120101403093e+00  -8.8426358133234526e+00  -9.0583167175062513e+00  -9.2090613450586236e+00  -9.2981695773566475e+00  -9.3276250719668603e+00  -9.2980902565665939e+00  -9.2089047788647544e+00  -9.0580870708979901e+00  -8.8423393673677317e+00  -8.5570571968154958e+00  -8.1963450331942145e+00  -7.7530404337718641e+00  -7.2187495572801952e+00  -6.5838973861984016e+00  -5.8377961695118188e+00  -4.9687354294118995e+00  -3.9640961994630022e+00  -2.8104908743468799e+00  -1.4939281341380712e+00  0.0000000000000000e+00  0.0000000000000000e+00  -1.4837879634666211e+00  -2.7903557349867265e+00  -3.9342875824067023e+00  -4.9297309671584904e+00  -5.7902028691627816e+00  -6.5284218006981591e+00  -7.1561682355623741e+00  -7.6841732813389427e+00  -8.1220333016659332e+00  -8.4781469357750865e+00  -8.7596704483463750e+00  -8.9724873765423681e+00  -9.1211888258325207e+00  -9.2090613450586165e+00  -9.2380799777127685e+00  -9.2089047788647527e+00  -9.1208797771177448e+00  -8.9720340415730035e+00  -8.7590851900456652e+00  -8.4774463554105886e+00  -8.1212383169586282e+00  -7.6833091961765430e+00  -7.1552647829585840e+00  -6.5275131372155659e+00  -5.7893274958491459e+00  -4.9289315494545960e+00  -3.9336106400429123e+00  -2.7898511734469507e+00  -1.4835084221873898e+00  0.0000000000000000e+00  0.0000000000000000e+00  -1.4662579642441131e+00  -2.7556068895656076e+00  -3.8829351595934636e+00  -4.8626564955367666e+00  -5.7085048633397308e+00  -6.4333617886093091e+00  -7.0491181771177738e+00  -7.5665689658857804e+00  -7.9953365337091258e+00  -8.3438176953555452e+00  -8.6191489580390126e+00  -8.8271851634443852e+00  -8.9724873765423592e+00  -9.0583167175062371e+00  -9.0866316577071018e+00  -9.0580870708979759e+00  -8.9720340415729982e+00  -8.8265201010803178e+00  -8.6182902156002239e+00  -8.3427895187315144e+00  -7.9941694923570692e+00  -7.5653000696206920e+00  -7.0477909584891618e+00  -6.4320263193989922e+00  -5.7072176685158071e+00  -4.8614803232523416e+00  -3.8819385623692324e+00  -2.7548635710554201e+00  -1.4658458498483820e+00  0.0000000000000000e+00  0.0000000000000000e+00  -1.4409464730291179e+00  -2.7054568798187013e+00  -3.8088720792115529e+00  -4.7659971523745055e+00  -5.5908791602856240e+00  -6.2966286343633859e+00  -6.8952853018639697e+00  -7.3977234779804819e+00  -7.8135899808287848e+00  -8.1512668183691801e+00  -8.4178514966844187e+00  -8.6191489580390126e+00  -8.7596704483463661e+00  -8.8426358133234384e+00  -8.8699767474226743e+00  -8.8423393673677140e+00  -8.7590851900456563e+00  -8.6182902156002168e+00  -8.4167424084679077e+00  -8.1499384902260594e+00  -7.8120816660703403e+00  -7.3960827544022578e+00  -6.8935682135669278e+00  -6.2948997589853519e+00  -5.5892115546000936e+00  -4.7644721213243439e+00  -3.8075787063262259e+00  -2.7044912526686535e+00  -1.4404105391045043e+00  0.0000000000000000e+00  0.0000000000000000e+00  -1.4070793113796345e+00  -2.6383945951283594e+00  -3.7099182712485632e+00  -4.6369921189758676e+00  -5.4340811786773839e+00  -6.1145898530254952e+00  -6.6907369128443870e+00  -7.1734794394199790e+00  -7.5724735151301816e+00  -7.8960601353770290e+00  -8.1512668183691872e+00  -8.3438176953555487e+00  -8.4781469357750847e+00  -8.5574120101403022e+00  -8.5835045186263859e+00  -8.5570571968154781e+00  -8.4774463554105726e+00  -8.3427895187315020e+00  -8.1499384902260523e+00  -7.8944685812658646e+00  -7.5706653848559915e+00  -7.1715113591617854e+00  -6.6886757103284946e+00  -6.1125127113132818e+00  -5.4320756636975061e+00  -4.6351560137471806e+00  -3.7083591366339048e+00  -2.6372289655143417e+00  -1.4064314288980448e+00  0.0000000000000000e+00  0.0000000000000000e+00  -1.3636067560506782e+00  -2.5523781253538682e+00  -3.5831430773837143e+00  -4.4719532075034527e+00  -5.2338055615309038e+00  -5.8824575323681012e+00  -6.4303218820284700e+00  -6.8884220545828798e+00  -7.2663876636386506e+00  -7.5724735151301843e+00  -7.8135899808287927e+00  -7.9953365337091311e+00  -8.1220333016659350e+00  -8.1967475936028809e+00  -8.2213136939790150e+00  -8.1963450331941896e+00  -8.1212383169586069e+00  -7.9941694923570497e+00  -7.8120816660703261e+00  -7.5706653848559888e+00  -7.2643321641759586e+00  -6.8861829618768997e+00  -6.4279746349741798e+00  -5.8800895131842390e+00  -5.2315162649949256e+00  -4.4698542234415903e+00  -3.5813577889156725e+00  -2.5510410014608551e+00  -1.3628620980288866e+00  0.0000000000000000e+00  0.0000000000000000e+00  -1.3091498347046864e+00  -2.4447388034788609e+00  -3.4247450743952217e+00  -4.2661389747106835e+00  -4.9845693017447283e+00  -5.5941897959775524e+00  -6.1075947326904902e+00  -6.5358263139403965e+00  -6.8884220545828754e+00  -7.1734794394199826e+00  -7.3977234779804917e+00  -7.5665689658857938e+00  -7.6841732813389516e+00  -7.7534779003630110e+00  -7.7762380469096959e+00  -7.7530404337718384e+00  -7.6833091961765190e+00  -7.5653000696206689e+00  -7.3960827544022365e+00  -7.1715113591617676e+00  -6.8861829618768873e+00  -6.5333848664049592e+00  -6.1050323641186024e+00  -5.5916011626126467e+00  -4.9820626579766536e+00  -4.2638364015219379e+00  -3.4227824506785809e+00  -2.4432653668343081e+00  -1.3083271320901830e+00  0.0000000000000000e+00  0.0000000000000000e+00  -1.2419156891534238e+00  -2.3120333579777776e+00  -3.2298727706575590e+00  -4.0135738832831809e+00  -4.6795506466417027e+00  -5.2423608684443046e+00  -5.7147203548759178e+00  -6.1075947326904858e+00  -6.4303218820284629e+00  -6.6907369128443861e+00  -6.8952853018639750e+00  -7.0491181771177835e+00  -7.1561682355623759e+00  -7.2192068507441967e+00  -7.2398836188510236e+00  -7.2187495572801703e+00  -7.1552647829585618e+00  -7.0477909584891396e+00  -6.8935682135669039e+00  -6.6886757103284733e+00  -6.4279746349741664e+00  -6.1050323641185980e+00  -5.7120272450839700e+00  -5.2396354980621194e+00  -4.6769062400749668e+00  -4.0111389886054862e+00  -3.2277916672943552e+00  -2.3104661130903414e+00  -1.2410375900948944e+00  0.0000000000000000e+00  0.0000000000000000e+00  -1.1595605624184762e+00  -2.1498123857568912e+00  -2.9923562044292464e+00  -3.7067911654617922e+00  -4.3103722810766323e+00  -4.8179961547118531e+00  -5.2423608684442984e+00  -5.5941897959775444e+00  -5.8824575323680932e+00  -6.1145898530254916e+00  -6.2966286343633868e+00  -6.4333617886093100e+00  -6.5284218006981591e+00  -6.5843571966530767e+00  -6.6026807672444532e+00  -6.5838973861983829e+00  -6.5275131372155482e+00  -6.4320263193989735e+00  -6.2948997589853315e+00  -6.1125127113132667e+00  -5.8800895131842310e+00  -5.5916011626126467e+00  -5.2396354980621220e+00  -4.8152323893845761e+00  -4.3076838821578916e+00  -3.7043083426005841e+00  -2.9902266408459619e+00  -2.1482020822509051e+00  -1.1586541566257991e+00  0.0000000000000000e+00  0.0000000000000000e+00  -1.0589578813049738e+00  -1.9522474489659898e+00  -2.7043012187551994e+00  -3.3364702219324371e+00  -3.8668170726801350e+00  -4.3103722810766341e+00  -4.6795506466417027e+00  -4.9845693017447248e+00  -5.2338055615309029e+00  -5.4340811786773848e+00  -5.5908791602856285e+00  -5.7085048633397335e+00  -5.7902028691627851e+00  -5.8382390025644026e+00  -5.8539543893263808e+00  -5.8377961695118037e+00  -5.7893274958491316e+00  -5.7072176685157938e+00  -5.5892115546000811e+00  -5.4320756636974989e+00  -5.2315162649949238e+00  -4.9820626579766554e+00  -4.6769062400749704e+00  -4.3076838821578