<?xml version="1.0"?>
<VTKFile type="UnstructuredGrid"  version="0.1"  >
<UnstructuredGrid>
<Piece  NumberOfPoints="961" NumberOfCells="1800">
<Points>
<DataArray  type="Float64"  NumberOfComponents="3"  format="ascii">-2 -2 0  -1.866666666666667 -2 0  -1.733333333333333 -2 0  -1.6 -2 0  -1.466666666666667 -2 0  -1.333333333333333 -2 0  -1.2 -2 0  -1.066666666666667 -2 0  -0.9333333333333333 -2 0  -0.8 -2 0  -0.6666666666666667 -2 0  -0.5333333333333334 -2 0  -0.3999999999999999 -2 0  -0.2666666666666666 -2 0  -0.1333333333333333 -2 0  0 -2 0  0.1333333333333333 -2 0  0.2666666666666666 -2 0  0.3999999999999999 -2 0  0.5333333333333332 -2 0  0.6666666666666665 -2 0  0.7999999999999998 -2 0  0.9333333333333331 -2 0  1.066666666666667 -2 0  1.2 -2 0  1.333333333333333 -2 0  1.466666666666667 -2 0  1.6 -2 0  1.733333333333333 -2 0  1.866666666666667 -2 0  2 -2 0  -2 -1.866666666666667 0  -1.866666666666667 -1.866666666666667 0  -1.733333333333333 -1.866666666666667 0  -1.6 -1.866666666666667 0  -1.466666666666667 -1.866666666666667 0  -1.333333333333333 -1.866666666666667 0  -1.2 -1.866666666666667 0  -1.066666666666667 -1.866666666666667 0  -0.9333333333333333 -1.866666666666667 0  -0.8 -1.866666666666667 0  -0.6666666666666667 -1.866666666666667 0  -0.5333333333333334 -1.866666666666667 0  -0.3999999999999999 -1.866666666666667 0  -0.2666666666666666 -1.866666666666667 0  -0.1333333333333333 -1.866666666666667 0  0 -1.866666666666667 0  0.1333333333333333 -1.866666666666667 0  0.2666666666666666 -1.866666666666667 0  0.3999999999999999 -1.866666666666667 0  0.5333333333333332 -1.866666666666667 0  0.6666666666666665 -1.866666666666667 0  0.7999999999999998 -1.866666666666667 0  0.9333333333333331 -1.866666666666667 0  1.066666666666667 -1.866666666666667 0  1.2 -1.866666666666667 0  1.333333333333333 -1.866666666666667 0  1.466666666666667 -1.866666666666667 0  1.6 -1.866666666666667 0  1.733333333333333 -1.866666666666667 0  1.866666666666667 -1.866666666666667 0  2 -1.866666666666667 0  -2 -1.733333333333333 0  -1.866666666666667 -1.733333333333333 0  -1.733333333333333 -1.733333333333333 0  -1.6 -1.733333333333333 0  -1.466666666666667 -1.733333333333333 0  -1.333333333333333 -1.733333333333333 0  -1.2 -1.733333333333333 0  -1.066666666666667 -1.733333333333333 0  -0.9333333333333333 -1.733333333333333 0  -0.8 -1.733333333333333 0  -0.6666666666666667 -1.733333333333333 0  -0.5333333333333334 -1.733333333333333 0  -0.3999999999999999 -1.733333333333333 0  -0.2666666666666666 -1.733333333333333 0  -0.1333333333333333 -1.733333333333333 0  0 -1.733333333333333 0  0.1333333333333333 -1.733333333333333 0  0.2666666666666666 -1.733333333333333 0  0.3999999999999999 -1.733333333333333 0  0.5333333333333332 -1.733333333333333 0  0.6666666666666665 -1.733333333333333 0  0.7999999999999998 -1.733333333333333 0  0.9333333333333331 -1.733333333333333 0  1.066666666666667 -1.733333333333333 0  1.2 -1.733333333333333 0  1.333333333333333 -1.733333333333333 0  1.466666666666667 -1.733333333333333 0  1.6 -1.733333333333333 0  1.733333333333333 -1.733333333333333 0  1.866666666666667 -1.733333333333333 0  2 -1.733333333333333 0  -2 -1.6 0  -1.866666666666667 -1.6 0  -1.733333333333333 -1.6 0  -1.6 -1.6 0  -1.466666666666667 -1.6 0  -1.333333333333333 -1.6 0  -1.2 -1.6 0  -1.066666666666667 -1.6 0  -0.9333333333333333 -1.6 0  -0.8 -1.6 0  -0.6666666666666667 -1.6 0  -0.5333333333333334 -1.6 0  -0.3999999999999999 -1.6 0  -0.2666666666666666 -1.6 0  -0.1333333333333333 -1.6 0  0 -1.6 0  0.1333333333333333 -1.6 0  0.2666666666666666 -1.6 0  0.3999999999999999 -1.6 0  0.5333333333333332 -1.6 0  0.6666666666666665 -1.6 0  0.7999999999999998 -1.6 0  0.9333333333333331 -1.6 0  1.066666666666667 -1.6 0  1.2 -1.6 0  1.333333333333333 -1.6 0  1.466666666666667 -1.6 0  1.6 -1.6 0  1.733333333333333 -1.6 0  1.866666666666667 -1.6 0  2 -1.6 0  -2 -1.466666666666667 0  -1.866666666666667 -1.466666666666667 0  -1.733333333333333 -1.466666666666667 0  -1.6 -1.466666666666667 0  -1.466666666666667 -1.466666666666667 0  -1.333333333333333 -1.466666666666667 0  -1.2 -1.466666666666667 0  -1.066666666666667 -1.466666666666667 0  -0.9333333333333333 -1.466666666666667 0  -0.8 -1.466666666666667 0  -0.6666666666666667 -1.466666666666667 0  -0.5333333333333334 -1.466666666666667 0  -0.3999999999999999 -1.466666666666667 0  -0.2666666666666666 -1.466666666666667 0  -0.1333333333333333 -1.466666666666667 0  0 -1.466666666666667 0  0.1333333333333333 -1.466666666666667 0  0.2666666666666666 -1.466666666666667 0  0.3999999999999999 -1.466666666666667 0  0.5333333333333332 -1.466666666666667 0  0.6666666666666665 -1.466666666666667 0  0.7999999999999998 -1.466666666666667 0  0.9333333333333331 -1.466666666666667 0  1.066666666666667 -1.466666666666667 0  1.2 -1.466666666666667 0  1.333333333333333 -1.466666666666667 0  1.466666666666667 -1.466666666666667 0  1.6 -1.466666666666667 0  1.733333333333333 -1.466666666666667 0  1.866666666666667 -1.466666666666667 0  2 -1.466666666666667 0  -2 -1.333333333333333 0  -1.866666666666667 -1.333333333333333 0  -1.733333333333333 -1.333333333333333 0  -1.6 -1.333333333333333 0  -1.466666666666667 -1.333333333333333 0  -1.333333333333333 -1.333333333333333 0  -1.2 -1.333333333333333 0  -1.066666666666667 -1.333333333333333 0  -0.9333333333333333 -1.333333333333333 0  -0.8 -1.333333333333333 0  -0.6666666666666667 -1.333333333333333 0  -0.5333333333333334 -1.333333333333333 0  -0.3999999999999999 -1.333333333333333 0  -0.2666666666666666 -1.333333333333333 0  -0.1333333333333333 -1.333333333333333 0  0 -1.333333333333333 0  0.1333333333333333 -1.333333333333333 0  0.2666666666666666 -1.333333333333333 0  0.3999999999999999 -1.333333333333333 0  0.5333333333333332 -1.333333333333333 0  0.6666666666666665 -1.333333333333333 0  0.7999999999999998 -1.333333333333333 0  0.9333333333333331 -1.333333333333333 0  1.066666666666667 -1.333333333333333 0  1.2 -1.333333333333333 0  1.333333333333333 -1.333333333333333 0  1.466666666666667 -1.333333333333333 0  1.6 -1.333333333333333 0  1.733333333333333 -1.333333333333333 0  1.866666666666667 -1.333333333333333 0  2 -1.333333333333333 0  -2 -1.2 0  -1.866666666666667 -1.2 0  -1.733333333333333 -1.2 0  -1.6 -1.2 0  -1.466666666666667 -1.2 0  -1.333333333333333 -1.2 0  -1.2 -1.2 0  -1.066666666666667 -1.2 0  -0.9333333333333333 -1.2 0  -0.8 -1.2 0  -0.6666666666666667 -1.2 0  -0.5333333333333334 -1.2 0  -0.3999999999999999 -1.2 0  -0.2666666666666666 -1.2 0  -0.1333333333333333 -1.2 0  0 -1.2 0  0.1333333333333333 -1.2 0  0.2666666666666666 -1.2 0  0.3999999999999999 -1.2 0  0.5333333333333332 -1.2 0  0.6666666666666665 -1.2 0  0.7999999999999998 -1.2 0  0.9333333333333331 -1.2 0  1.066666666666667 -1.2 0  1.2 -1.2 0  1.333333333333333 -1.2 0  1.466666666666667 -1.2 0  1.6 -1.2 0  1.733333333333333 -1.2 0  1.866666666666667 -1.2 0  2 -1.2 0  -2 -1.066666666666667 0  -1.866666666666667 -1.066666666666667 0  -1.733333333333333 -1.066666666666667 0  -1.6 -1.066666666666667 0  -1.466666666666667 -1.066666666666667 0  -1.333333333333333 -1.066666666666667 0  -1.2 -1.066666666666667 0  -1.066666666666667 -1.066666666666667 0  -0.9333333333333333 -1.066666666666667 0  -0.8 -1.066666666666667 0  -0.6666666666666667 -1.066666666666667 0  -0.5333333333333334 -1.066666666666667 0  -0.3999999999999999 -1.066666666666667 0  -0.2666666666666666 -1.066666666666667 0  -0.1333333333333333 -1.066666666666667 0  0 -1.066666666666667 0  0.1333333333333333 -1.066666666666667 0  0.2666666666666666 -1.066666666666667 0  0.3999999999999999 -1.066666666666667 0  0.5333333333333332 -1.066666666666667 0  0.6666666666666665 -1.066666666666667 0  0.7999999999999998 -1.066666666666667 0  0.9333333333333331 -1.066666666666667 0  1.066666666666667 -1.066666666666667 0  1.2 -1.066666666666667 0  1.333333333333333 -1.066666666666667 0  1.466666666666667 -1.066666666666667 0  1.6 -1.066666666666667 0  1.733333333333333 -1.066666666666667 0  1.866666666666667 -1.066666666666667 0  2 -1.066666666666667 0  -2 -0.9333333333333333 0  -1.866666666666667 -0.9333333333333333 0  -1.733333333333333 -0.9333333333333333 0  -1.6 -0.9333333333333333 0  -1.466666666666667 -0.9333333333333333 0  -1.333333333333333 -0.9333333333333333 0  -1.2 -0.9333333333333333 0  -1.066666666666667 -0.9333333333333333 0  -0.9333333333333333 -0.9333333333333333 0  -0.8 -0.9333333333333333 0  -0.6666666666666667 -0.9333333333333333 0  -0.5333333333333334 -0.9333333333333333 0  -0.3999999999999999 -0.9333333333333333 0  -0.2666666666666666 -0.9333333333333333 0  -0.1333333333333333 -0.9333333333333333 0  0 -0.9333333333333333 0  0.1333333333333333 -0.9333333333333333 0  0.2666666666666666 -0.9333333333333333 0  0.3999999999999999 -0.9333333333333333 0  0.5333333333333332 -0.9333333333333333 0  0.6666666666666665 -0.9333333333333333 0  0.7999999999999998 -0.9333333333333333 0  0.9333333333333331 -0.9333333333333333 0  1.066666666666667 -0.9333333333333333 0  1.2 -0.9333333333333333 0  1.333333333333333 -0.9333333333333333 0  1.466666666666667 -0.9333333333333333 0  1.6 -0.9333333333333333 0  1.733333333333333 -0.9333333333333333 0  1.866666666666667 -0.9333333333333333 0  2 -0.9333333333333333 0  -2 -0.8 0  -1.866666666666667 -0.8 0  -1.733333333333333 -0.8 0  -1.6 -0.8 0  -1.466666666666667 -0.8 0  -1.333333333333333 -0.8 0  -1.2 -0.8 0  -1.066666666666667 -0.8 0  -0.9333333333333333 -0.8 0  -0.8 -0.8 0  -0.6666666666666667 -0.8 0  -0.5333333333333334 -0.8 0  -0.3999999999999999 -0.8 0  -0.2666666666666666 -0.8 0  -0.1333333333333333 -0.8 0  0 -0.8 0  0.1333333333333333 -0.8 0  0.2666666666666666 -0.8 0  0.3999999999999999 -0.8 0  0.5333333333333332 -0.8 0  0.6666666666666665 -0.8 0  0.7999999999999998 -0.8 0  0.9333333333333331 -0.8 0  1.066666666666667 -0.8 0  1.2 -0.8 0  1.333333333333333 -0.8 0  1.466666666666667 -0.8 0  1.6 -0.8 0  1.733333333333333 -0.8 0  1.866666666666667 -0.8 0  2 -0.8 0  -2 -0.6666666666666667 0  -1.866666666666667 -0.
[...]
<PointData  Scalars="f_8002"> 
<DataArray  type="Float64"  Name="f_8002"  format="ascii">0.0000000000000000e+00  0.0000000000000000e+00  0.0000000000000000e+00  0.0000000000000000e+00  0.0000000000000000e+00  0.0000000000000000e+00  0.0000000000000000e+00  0.0000000000000000e+00  0.0000000000000000e+00  0.0000000000000000e+00  0.0000000000000000e+00  0.0000000000000000e+00  0.0000000000000000e+00  0.0000000000000000e+00  0.0000000000000000e+00  0.0000000000000000e+00  0.0000000000000000e+00  0.0000000000000000e+00  0.0000000000000000e+00  0.0000000000000000e+00  0.0000000000000000e+00  0.0000000000000000e+00  0.0000000000000000e+00  0.0000000000000000e+00  0.0000000000000000e+00  0.0000000000000000e+00  0.0000000000000000e+00  0.0000000000000000e+00  0.0000000000000000e+00  0.0000000000000000e+00  0.0000000000000000e+00  0.0000000000000000e+00  -3.6367404111286944e-01  -6.3156588007810444e-01  -8.4179267634445509e-01  -1.0123638663734187e+00  -1.1531960519818709e+00  -1.2704330849136565e+00  -1.3682155593103171e+00  -1.4494987711307825e+00  -1.5164718294567654e+00  -1.5707908213114095e+00  -1.6137169169798620e+00  -1.6462019130190910e+00  -1.6689426519166328e+00  -1.6824157859225981e+00  -1.6868992458719008e+00  -1.6824839406734202e+00  -1.6690774726143205e+00  -1.6464004144984201e+00  -1.6139746010285694e+00  -1.5711016473758903e+00  -1.5168281665531966e+00  -1.4498913205005406e+00  -1.3686332300380784e+00  -1.2708627912718979e+00  -1.1536223746662724e+00  -1.0127684627456734e+00  -8.4215319057923765e-01  -6.3185375424926393e-01  -3.6384961289135076e-01  0.0000000000000000e+00  0.0000000000000000e+00  -6.3156588007810444e-01  -1.1296005417850017e+00  -1.5324036421928939e+00  -1.8639753466288116e+00  -2.1398250489223987e+00  -2.3704673968263386e+00  -2.5633622681945782e+00  -2.7239980466688625e+00  -2.8565169789055833e+00  -2.9640906489026713e+00  -3.0491537188593405e+00  -3.1135535994221297e+00  -3.1586478404172453e+00  -3.1853673123446509e+00  -3.1942556286604615e+00  -3.1854907655624283e+00  -3.1588919481649111e+00  -3.1139127495877936e+00  -3.0496194536654104e+00  -2.9646516090740413e+00  -2.8571588135870059e+00  -2.7247032714576571e+00  -2.5641100422732896e+00  -2.3712331705861867e+00  -2.1405799981600078e+00  -1.8646854432425140e+00  -1.5330280841027346e+00  -1.1300890218748352e+00  -6.3185375424926404e-01  0.0000000000000000e+00  0.0000000000000000e+00  -8.4179267634445509e-01  -1.5324036421928939e+00  -2.1044984952983801e+00  -2.5822517367145879e+00  -2.9832620705428576e+00  -3.3204678352668284e+00  -3.6035582076776258e+00  -3.8399230937865507e+00  -4.0352767680678827e+00  -4.1940675710599420e+00  -4.3197496778755164e+00  -4.4149651512819856e+00  -4.4816662715490887e+00  -4.5211967153959272e+00  -4.5343429962401451e+00  -4.5213629479549944e+00  -4.4819948392635389e+00  -4.4154482392640571e+00  -4.3203755102260164e+00  -4.1948203365913601e+00  -4.0361365027648848e+00  -3.8408654999883391e+00  -3.6045543785862524e+00  -3.3214838355970846e+00  -2.9842582960348563e+00  -2.5831819316322715e+00  -2.1053082443683198e+00  -1.5330280841027351e+00  -8.4215319057923799e-01  0.0000000000000000e+00  0.0000000000000000e+00  -1.0123638663734187e+00  -1.8639753466288120e+00  -2.5822517367145879e+00  -3.1896150740732416e+00  -3.7038268073223946e+00  -4.1388271298214034e+00  -4.5055746241264885e+00  -4.8127278227970525e+00  -5.0671549243410414e+00  -5.2743017947956874e+00  -5.4384536317545438e+00  -5.5629194775699018e+00  -5.6501609731416425e+00  -5.7018801667061796e+00  -5.7190762216995230e+00  -5.7020771963577381e+00  -5.6505502719312179e+00  -5.5634915016982909e+00  -5.4391940052625163e+00  -5.2751912274847079e+00  -5.0681690846692087e+00  -4.8138371476517641e+00  -4.5067440387842259e+00  -4.1400156397256813e+00  -3.7049869082691806e+00  -3.1906919109183702e+00  -2.5831819316322728e+00  -1.8646854432425155e+00  -1.0127684627456739e+00  0.0000000000000000e+00  0.0000000000000000e+00  -1.1531960519818703e+00  -2.1398250489223991e+00  -2.9832620705428576e+00  -3.7038268073223954e+00  -4.3185894136038341e+00  -4.8416382639340378e+00  -5.2845065923557168e+00  -5.6565996329861976e+00  -5.9655604179495025e+00  -6.2175608278708632e+00  -6.4175240715501394e+00  -6.5692903591842304e+00  -6.6757373409285412e+00  -6.7388647602520280e+00  -6.7598502988327001e+00  -6.7390813003184604e+00  -6.6761650483937425e+00  -6.5699184660296721e+00  -6.4183363662486155e+00  -6.2185355759279490e+00  -5.9666702418081741e+00  -5.6578113377927437e+00  -5.2857809192553189e+00  -4.8429295475409626e+00  -4.3198451167293692e+00  -3.7049869082691811e+00  -2.9842582960348576e+00  -2.1405799981600091e+00  -1.1536223746662726e+00  0.0000000000000000e+00  0.0000000000000000e+00  -1.2704330849136551e+00  -2.3704673968263368e+00  -3.3204678352668262e+00  -4.1388271298214008e+00  -4.8416382639340343e+00  -5.4426938750635250e+00  -5.9536584626197104e+00  -6.3843031321682728e+00  -6.7427410453340464e+00  -7.0356354912691295e+00  -7.2683715484351135e+00  -7.4451914580480087e+00  -7.5692973903686722e+00  -7.6429260381680759e+00  -7.6673989631299895e+00  -7.6431516194022766e+00  -7.5697428248553171e+00  -7.4458452695751527e+00  -7.2692164700998276e+00  -7.0366483968288760e+00  -6.7438928483411260e+00  -6.3855586449034982e+00  -5.9549762054151287e+00  -5.4440258267066728e+00  -4.8429295475409608e+00  -4.1400156397256804e+00  -3.3214838355970837e+00  -2.3712331705861862e+00  -1.2708627912718977e+00  0.0000000000000000e+00  0.0000000000000000e+00  -1.3682155593103156e+00  -2.5633622681945742e+00  -3.6035582076776231e+00  -4.5055746241264849e+00  -5.2845065923557124e+00  -5.9536584626197095e+00  -6.5245721325725441e+00  -7.0071314354883194e+00  -7.4096955192579346e+00  -7.7392331440721174e+00  -8.0014435582876473e+00  -8.2008580223004568e+00  -8.3409205767440646e+00  -8.4240487352481495e+00  -8.4516754690487854e+00  -8.4242737963470322e+00  -8.3413648693068172e+00  -8.2015098708133269e+00  -8.0022854078075234e+00  -7.7402415073412172e+00  -7.4108409017527137e+00  -7.0083782355385020e+00  -6.5258785146987810e+00  -5.9549762054151252e+00  -5.2857809192553136e+00  -4.5067440387842224e+00  -3.6045543785862462e+00  -2.5641100422732861e+00  -1.3686332300380770e+00  0.0000000000000000e+00  0.0000000000000000e+00  -1.4494987711307812e+00  -2.7239980466688607e+00  -3.8399230937865507e+00  -4.8127278227970516e+00  -5.6565996329861949e+00  -6.3843031321682728e+00  -7.0071314354883194e+00  -7.5349275611446611e+00  -7.9761440295355532e+00  -8.3379179251878206e+00  -8.6261470910603499e+00  -8.8455593558730357e+00  -8.9997707473796726e+00  -9.0913310137769248e+00  -9.1217560029595361e+00  -9.0915469664530661e+00  -9.0001969638106143e+00  -8.8461844466616917e+00  -8.6269539429689956e+00  -8.3388836656319345e+00  -7.9772399789485258e+00  -7.5361191743366573e+00  -7.0083782355385020e+00  -6.3855586449034938e+00  -5.6578113377927366e+00  -4.8138371476517579e+00  -3.8408654999883338e+00  -2.7247032714576527e+00  -1.4498913205005386e+00  0.0000000000000000e+00  0.0000000000000000e+00  -1.5164718294567650e+00  -2.8565169789055824e+00  -4.0352767680678818e+00  -5.0671549243410414e+00  -5.9655604179494981e+00  -6.7427410453340428e+00  -7.4096955192579372e+00  -7.9761440295355559e+00  -8.4505370457947215e+00  -8.8400856931204359e+00  -9.1508015573523522e+00  -9.3875378286579316e+00  -9.5540267746441394e+00  -9.6529106479989188e+00  -9.6857644705506072e+00  -9.6531099222621091e+00  -9.5544199991622669e+00  -9.3881143484248017e+00  -9.1515453727412872e+00  -8.8409754405512366e+00  -8.4515459746317525e+00  -7.9772399789485382e+00  -7.4108409017527244e+00  -6.7438928483411305e+00  -5.9666702418081750e+00  -5.0681690846692105e+00  -4.0361365027648857e+00  -2.8571588135870067e+00  -1.5168281665531969e+00  0.0000000000000000e+00  0.0000000000000000e+00  -1.5707908213114092e+00  -2.9640906489026695e+00  -4.1940675710599411e+00  -5.2743017947956856e+00  -6.2175608278708570e+00  -7.0356354912691286e+00  -7.7392331440721200e+00  -8.3379179251878242e+00  -8.8400856931204377e+00  -9.2529620969051845e+00  -9.5826142939948724e+00  -9.8339691991236204e+00  -1.0010833261308328e+01  -1.0115910432610370e+01  -1.0150816212290696e+01  -1.0116086507245921e+01  -1.0011180651961125e+01  -9.8344783853922539e+00  -9.5832709881012903e+00  -9.2537472373414946e+00  -8.8409754405512526e+00  -8.3388836656319612e+00  -7.7402415073412394e+00  -7.0366483968288893e+00  -6.2185355759279553e+00  -5.2751912274847133e+00  -4.1948203365913646e+00  -2.9646516090740445e+00  -1.5711016473758923e+00  0.0000000000000000e+00  0.0000000000000000e+00  -1.6137169169798611e+00  -3.0491537188593387e+00  -4.3197496778755147e+00  -5.4384536317545420e+00  -6.4175240715501349e+00  -7.2683715484351135e+00  -8.0014435582876473e+00  -8.6261470910603517e+00  -9.1508015573523505e+00  -9.5826142939948724e+00  -9.9276715355140936e+00  -1.0190938964121367e+01  -1.0376267286515578e+01  -1.0486399505135054e+01  -1.0522977571242107e+01  -1.0486546927512551e+01  -1.0376558110488954e+01  -1.0191365147679516e+01  -9.9282210154073045e+00  -9.5832709881013027e+00  -9.1515453727413210e+00  -8.6269539429690365e+00  -8.0022854078075625e+00  -7.2692164700998489e+00  -6.4183363662486297e+00  -5.4391940052625252e+00  -4.3203755102260279e+00  -3.0496194536654166e+00  -1.6139746010285732e+00  0.0000000000000000e+00  0.0000000000000000e+00  -1.6462019130190895e+00  -3.1135535994221248e+00  -4.4149651512819794e+00  -5.5629194775698929e+00  -6.5692903591842171e+00  -7.4451914580480034e+00  -8.2008580223004568e+00  -8.8455593558730339e+00  -9.3875378286579299e+00  -9.8339691991236187e+00  -1.0190938964121363e+01  -1.0463429965341280e+01  -1.0655317266594105e+01  -1.0769367172057260e+01  -1.0807238075285023e+01  -1.0769481570524720e+01  -1.0655542921787895e+01  -1.0463760594822283e+01  -1.0191365147679516e+01  -9.8344783853922628e+00  -9.3881143484248266e+00  -8.8461844466617272e+00  -8.2015098708133625e+00  -7.4458452695751749e+00  -6.5699184660296810e+00  -5.5634915016983015e+00  -4.4154482392640659e+00  -3.1139127495878003e+00  -1.6464004144984237e+00  0.0000000000000000e+00  0.0000000000000000e+00  -1.6689426519166319e+00  -3.1586478404172413e+00  -4.4816662715490816e+00  -5.6501609731416300e+00  -6.6757373409285226e+00  -7.5692973903686607e+00  -8.3409205767440611e+00  -8.9997707473796744e+00  -9.5540267746441394e+00  -1.0010833261308324e+01  -1.0376267286515574e+01  -1.0655317266594105e+01  -1.0851870437968122e+01  -1.0968706069948892e+01  -1.1007492176724870e+01  -1.0968784161261445e+01  -1.0852024465554495e+01  -1.0655542921787884e+01  -1.0376558110488938e+01  -1.0011180651961125e+01  -9.5544199991622811e+00  -9.0001969638106445e+00  -8.3413648693068403e+00  -7.5697428248553331e+00  -6.6761650483937514e+00  -5.6505502719312251e+00  -4.4819948392635434e+00  -3.1588919481649156e+00  -1.6690774726143234e+00  0.0000000000000000e+00  0.0000000000000000e+00  -1.6824157859225961e+00  -3.1853673123446455e+00  -4.5211967153959165e+00  -5.7018801667061672e+00  -6.7388647602520138e+00  -7.6429260381680688e+00  -8.4240487352481441e+00  -9.0913310137769212e+00  -9.6529106479989171e+00  -1.0115910432610365e+01  -1.0486399505135047e+01  -1.0769367172057256e+01  -1.0968706069948889e+01  -1.1087201944816886e+01  -1.1126527895822051e+01  -1.1087241538359844e+01  -1.0968784161261434e+01  -1.0769481570524702e+01  -1.0486546927512531e+01  -1.0116086507245919e+01  -9.6531099222621215e+00  -9.0915469664530963e+00  -8.4242737963470553e+00  -7.6431516194022908e+00  -6.7390813003184658e+00  -5.7020771963577426e+00  -4.5213629479549979e+00  -3.1854907655624314e+00  -1.6824839406734222e+00  0.0000000000000000e+00  0.0000000000000000e+00  -1.6868992458718972e+00  -3.1942556286604535e+00  -4.5343429962401318e+00  -5.7190762216995079e+00  -6.7598502988326850e+00  -7.6673989631299797e+00  -8.4516754690487783e+00  -9.1217560029595273e+00  -9.6857644705505983e+00  -1.0150816212290684e+01  -1.0522977571242089e+01  -1.0807238075285010e+01  -1.1007492176724860e+01  -1.1126527895822042e+01  -1.1166020244471039e+01  -1.1126527895822042e+01  -1.1007492176724854e+01  -1.0807238075285005e+01  -1.0522977571242093e+01  -1.0150816212290698e+01  -9.6857644705506214e+00  -9.1217560029595628e+00  -8.4516754690488085e+00  -7.6673989631300055e+00  -6.7598502988327089e+00  -5.7190762216995266e+00  -4.5343429962401478e+00  -3.1942556286604638e+00  -1.6868992458719028e+00  0.0000000000000000e+00  0.0000000000000000e+00  -1.6824839406734162e+00  -3.1854907655624207e+00  -4.5213629479549837e+00  -5.7020771963577239e+00  -6.7390813003184435e+00  -7.6431516194022651e+00  -8.4242737963470216e+00  -9.0915469664530537e+00  -9.6531099222620895e+00  -1.0116086507245900e+01  -1.0486546927512526e+01  -1.0769481570524702e+01  -1.0968784161261427e+01  -1.1087241538359830e+01  -1.1126527895822038e+01  -1.1087201944816876e+01  -1.0968706069948871e+01  -1.0769367172057239e+01  -1.0486399505135042e+01  -1.0115910432610370e+01  -9.6529106479989313e+00  -9.0913310137769496e+00  -8.4240487352481761e+00  -7.6429260381680919e+00  -6.7388647602520360e+00  -5.7018801667061867e+00  -4.5211967153959316e+00  -3.1853673123446540e+00  -1.6824157859226008e+00  0.0000000000000000e+00  0.0000000000000000e+00  -1.6690774726143172e+00  -3.1588919481649036e+00  -4.4819948392635265e+00  -5.6505502719312055e+00  -6.6761650483937292e+00  -7.5697428248553074e+00  -8.3413648693068048e+00  -9.0001969638106019e+00  -9.5544199991622474e+00  -1.0011180651961103e+01  -1.0376558110488929e+01  -1.0655542921787884e+01  -1.0852024465554480e+01  -1.0968784161261418e+01  -1.1007492176724849e+01  -1.0968706069948871e+01  -1.0851870437968101e+01  -1.0655317266594087e+01  -1.0376267286515564e+01  -1.0010833261308328e+01  -9.5540267746441536e+00  -8.9997707473796975e+00  -8.3409205767440913e+00  -7.5692973903686891e+00  -6.6757373409285528e+00  -5.6501609731416513e+00  -4.4816662715490940e+00  -3.1586478404172480e+00  -1.6689426519166348e+00  0.0000000000000000e+00  0.0000000000000000e+00  -1.6464004144984172e+00  -3.1139127495877883e+00  -4.4154482392640482e+00  -5.5634915016982820e+00  -6.5699184660296632e+00  -7.4458452695751456e+00  -8.2015098708133181e+00  -8.8461844466616810e+00  -9.3881143484247875e+00  -9.8344783853922362e+00  -1.0191365147679496e+01  -1.0463760594822269e+01  -1.0655542921787870e+01  -1.0769481570524690e+01  -1.0807238075284994e+01  -1.0769367172057233e+01  -1.0655317266594082e+01  -1.0463429965341263e+01  -1.0190938964121354e+01  -9.8339691991236187e+00  -9.3875378286579458e+00  -8.8455593558730605e+00  -8.2008580223004834e+00  -7.4451914580480247e+00  -6.5692903591842384e+00  -5.5629194775699071e+00  -4.4149651512819883e+00  -3.1135535994221315e+00  -1.6462019130190924e+00  0.0000000000000000e+00  0.0000000000000000e+00  -1.6139746010285669e+00  -3.0496194536654047e+00  -4.3203755102260102e+00  -5.4391940052625101e+00  -6.4183363662486084e+00  -7.2692164700998214e+00  -8.0022854078075198e+00  -8.6269539429689832e+00  -9.1515453727412766e+00  -9.5832709881012708e+00  -9.9282210154072779e+00  -1.0191365147679498e+01  -1.0376558110488917e+01  -1.0486546927512517e+01  -1.0522977571242077e+01  -1.0486399505135026e+01  -1.0376267286515553e+01  -1.0190938964121345e+01  -9.9276715355140812e+00  -9.5826142939948689e+00  -9.1508015573523664e+00  -8.6261470910603801e+00  -8.0014435582876740e+00  -7.2683715484351348e+00  -6.4175240715501518e+00  -5.4384536317545527e+00  -4.3197496778755227e+00  -3.0491537188593427e+00  -1.6137169169798640e+00  0.0000000000000000e+00  0.0000000000000000e+00  -1.5711016473758874e+00  -2.9646516090740356e+00  -4.1948203365913539e+00  -5.2751912274847008e+00  -6.2185355759279446e+00  -7.0366483968288689e+00  -7.7402415073412074e+00  -8.3388836656319221e+00  -8.8409754405512189e+00  -9.2537472373414733e+00  -9.5832709881012814e+00  -9.8344783853922451e+00  -1.0011180651961103e+01  -1.0116086507245900e+01  -1.0150816212290676e+01  -1.0115910432610349e+01  -1.0010833261308308e+01  -9.8339691991236062e+00  -9.5826142939948653e+00  -9.2529620969051951e+00  -8.8400856931204572e+00  -8.3379179251878632e+00  -7.7392331440721547e+00  -7.0356354912691517e+00  -6.2175608278708756e+00  -5.2743017947956981e+00  -4.1940675710599509e+00  -2.9640906489026757e+00  -1.5707908213114135e+00  0.0000000000000000e+00  0.0000000000000000e+00  -1.5168281665531935e+00  -2.8571588135869992e+00  -4.0361365027648777e+00  -5.0681690846691998e+00  -5.9666702418081625e+00  -6.7438928483411162e+00  -7.4108409017527013e+00  -7.9772399789485160e+00  -8.4515459746317294e+00  -8.8409754405512224e+00  -9.1515453727412908e+00  -9.3881143484248071e+00  -9.5544199991622563e+00  -9.6531099222620966e+00  -9.6857644705506001e+00  -9.6529106479989064e+00  -9.5540267746441287e+00  -9.3875378286579263e+00  -9.1508015573523522e+00  -8.8400856931204537e+00  -8.4505370457947464e+00  -7.9761440295355923e+00  -7.4096955192579692e+00  -6.7427410453340686e+00  -5.9655604179495167e+00  -5.0671549243410556e+00  -4.0352767680678916e+00  -2.8565169789055882e+00  -1.5164718294567681e+00  0.0000000000000000e+00  0.0000000000000000e+00  -1.4498913205005364e+00  -2.7247032714576491e+00  -3.8408654999883298e+00  -4.8138371476517516e+00  -5.6578113377927286e+00  -6.3855586449034831e+00  -7.0083782355384834e+00  -7.5361191743366369e+00  -7.9772399789485107e+00  -8.3388836656319292e+00  -8.6269539429690010e+00  -8.8461844466617006e+00  -9.0001969638106196e+00  -9.0915469664530679e+00  -9.1217560029595361e+00  -9.0913310137769230e+00  -8.9997707473796709e+00  -8.8455593558730339e+00  -8.6261470910603553e+00  -8.3379179251878401e+00  -7.9761440295355825e+00  -7.5349275611446975e+00  -7.0071314354883487e+00  -6.3843031321682906e+00  -5.6565996329862109e+00  -4.8127278227970640e+00  -3.8399230937865600e+00  -2.7239980466688665e+00  -1.4494987711307845e+00  0.0000000000000000e+00  0.0000000000000000e+00  -1.3686332300380741e+00  -2.5641100422732812e+00  -3.6045543785862395e+00  -4.5067440387842108e+00  -5.2857809192553047e+00  -5.9549762054151127e+00  -6.5258785146987623e+00  -7.0083782355384789e+00  -7.4108409017526959e+00  -7.7402415073412092e+00  -8.0022854078075323e+00  -8.2015098708133323e+00  -8.3413648693068172e+00  -8.4242737963470287e+00  -8.4516754690487836e+00  -8.4240487352481459e+00  -8.3409205767440628e+00  -8.2008580223004532e+00  -8.0014435582876455e+00  -7.7392331440721280e+00  -7.4096955192579541e+00  -7.0071314354883460e+00  -6.5245721325725654e+00  -5.9536584626197220e+00  -5.2845065923557240e+00  -4.5055746241264938e+00  -3.6035582076776294e+00  -2.5633622681945774e+00  -1.3682155593103174e+00  0.0000000000000000e+00  0.0000000000000000e+00  -1.2708627912718944e+00  -2.3712331705861796e+00  -3.3214838355970744e+00  -4.1400156397256698e+00  -4.8429295475409502e+00  -5.4440258267066604e+00  -5.9549762054151092e+00  -6.3855586449034769e+00  -6.7438928483411118e+00  -7.0366483968288671e+00  -7.2692164700998259e+00  -7.4458452695751545e+00  -7.5697428248553118e+00  -7.6431516194022704e+00  -7.6673989631299850e+00  -7.6429260381680715e+00  -7.5692973903686687e+00  -7.4451914580480025e+00  -7.2683715484351117e+00  -7.0356354912691357e+00  -6.7427410453340579e+00  -6.3843031321682933e+00  -5.9536584626197264e+00  -5.4426938750635374e+00  -4.8416382639340450e+00  -4.1388271298214070e+00  -3.3204678352668302e+00  -2.3704673968263386e+00  -1.2704330849136567e+00  0.0000000000000000e+00  0.0000000000000000e+00  -1.1536223746662695e+00  -2.1405799981600033e+00  -2.9842582960348509e+00  -3.7049869082691731e+00  -4.3198451167293603e+00  -4.8429295475409502e+00  -5.2857809192553038e+00  -5.6578113377927250e+00  -5.9666702418081607e+00  -6.2185355759279419e+00  -6.4183363662486137e+00  -6.5699184660296686e+00  -6.6761650483937380e+00  -6.7390813003184551e+00  -6.7598502988326956e+00  -6.7388647602520244e+00  -6.6757373409285350e+00  -6.5692903591842233e+00  -6.4175240715501385e+00  -6.2175608278708658e+00  -5.9655604179495114e+00  -5.6565996329862127e+00  -5.2845065923557275e+00  -4.8416382639340