<?xml version="1.0"?>
<VTKFile type="UnstructuredGrid"  version="0.1"  >
<UnstructuredGrid>
<Piece  NumberOfPoints="961" NumberOfCells="1800">
<Points>
<DataArray  type="Float64"  NumberOfComponents="3"  format="ascii">-2 -2 0  -1.866666666666667 -2 0  -1.733333333333333 -2 0  -1.6 -2 0  -1.466666666666667 -2 0  -1.333333333333333 -2 0  -1.2 -2 0  -1.066666666666667 -2 0  -0.9333333333333333 -2 0  -0.8 -2 0  -0.6666666666666667 -2 0  -0.5333333333333334 -2 0  -0.3999999999999999 -2 0  -0.2666666666666666 -2 0  -0.1333333333333333 -2 0  0 -2 0  0.1333333333333333 -2 0  0.2666666666666666 -2 0  0.3999999999999999 -2 0  0.5333333333333332 -2 0  0.6666666666666665 -2 0  0.7999999999999998 -2 0  0.9333333333333331 -2 0  1.066666666666667 -2 0  1.2 -2 0  1.333333333333333 -2 0  1.466666666666667 -2 0  1.6 -2 0  1.733333333333333 -2 0  1.866666666666667 -2 0  2 -2 0  -2 -1.866666666666667 0  -1.866666666666667 -1.866666666666667 0  -1.733333333333333 -1.866666666666667 0  -1.6 -1.866666666666667 0  -1.466666666666667 -1.866666666666667 0  -1.333333333333333 -1.866666666666667 0  -1.2 -1.866666666666667 0  -1.066666666666667 -1.866666666666667 0  -0.9333333333333333 -1.866666666666667 0  -0.8 -1.866666666666667 0  -0.6666666666666667 -1.866666666666667 0  -0.5333333333333334 -1.866666666666667 0  -0.3999999999999999 -1.866666666666667 0  -0.2666666666666666 -1.866666666666667 0  -0.1333333333333333 -1.866666666666667 0  0 -1.866666666666667 0  0.1333333333333333 -1.866666666666667 0  0.2666666666666666 -1.866666666666667 0  0.3999999999999999 -1.866666666666667 0  0.5333333333333332 -1.866666666666667 0  0.6666666666666665 -1.866666666666667 0  0.7999999999999998 -1.866666666666667 0  0.9333333333333331 -1.866666666666667 0  1.066666666666667 -1.866666666666667 0  1.2 -1.866666666666667 0  1.333333333333333 -1.866666666666667 0  1.466666666666667 -1.866666666666667 0  1.6 -1.866666666666667 0  1.733333333333333 -1.866666666666667 0  1.866666666666667 -1.866666666666667 0  2 -1.866666666666667 0  -2 -1.733333333333333 0  -1.866666666666667 -1.733333333333333 0  -1.733333333333333 -1.733333333333333 0  -1.6 -1.733333333333333 0  -1.466666666666667 -1.733333333333333 0  -1.333333333333333 -1.733333333333333 0  -1.2 -1.733333333333333 0  -1.066666666666667 -1.733333333333333 0  -0.9333333333333333 -1.733333333333333 0  -0.8 -1.733333333333333 0  -0.6666666666666667 -1.733333333333333 0  -0.5333333333333334 -1.733333333333333 0  -0.3999999999999999 -1.733333333333333 0  -0.2666666666666666 -1.733333333333333 0  -0.1333333333333333 -1.733333333333333 0  0 -1.733333333333333 0  0.1333333333333333 -1.733333333333333 0  0.2666666666666666 -1.733333333333333 0  0.3999999999999999 -1.733333333333333 0  0.5333333333333332 -1.733333333333333 0  0.6666666666666665 -1.733333333333333 0  0.7999999999999998 -1.733333333333333 0  0.9333333333333331 -1.733333333333333 0  1.066666666666667 -1.733333333333333 0  1.2 -1.733333333333333 0  1.333333333333333 -1.733333333333333 0  1.466666666666667 -1.733333333333333 0  1.6 -1.733333333333333 0  1.733333333333333 -1.733333333333333 0  1.866666666666667 -1.733333333333333 0  2 -1.733333333333333 0  -2 -1.6 0  -1.866666666666667 -1.6 0  -1.733333333333333 -1.6 0  -1.6 -1.6 0  -1.466666666666667 -1.6 0  -1.333333333333333 -1.6 0  -1.2 -1.6 0  -1.066666666666667 -1.6 0  -0.9333333333333333 -1.6 0  -0.8 -1.6 0  -0.6666666666666667 -1.6 0  -0.5333333333333334 -1.6 0  -0.3999999999999999 -1.6 0  -0.2666666666666666 -1.6 0  -0.1333333333333333 -1.6 0  0 -1.6 0  0.1333333333333333 -1.6 0  0.2666666666666666 -1.6 0  0.3999999999999999 -1.6 0  0.5333333333333332 -1.6 0  0.6666666666666665 -1.6 0  0.7999999999999998 -1.6 0  0.9333333333333331 -1.6 0  1.066666666666667 -1.6 0  1.2 -1.6 0  1.333333333333333 -1.6 0  1.466666666666667 -1.6 0  1.6 -1.6 0  1.733333333333333 -1.6 0  1.866666666666667 -1.6 0  2 -1.6 0  -2 -1.466666666666667 0  -1.866666666666667 -1.466666666666667 0  -1.733333333333333 -1.466666666666667 0  -1.6 -1.466666666666667 0  -1.466666666666667 -1.466666666666667 0  -1.333333333333333 -1.466666666666667 0  -1.2 -1.466666666666667 0  -1.066666666666667 -1.466666666666667 0  -0.9333333333333333 -1.466666666666667 0  -0.8 -1.466666666666667 0  -0.6666666666666667 -1.466666666666667 0  -0.5333333333333334 -1.466666666666667 0  -0.3999999999999999 -1.466666666666667 0  -0.2666666666666666 -1.466666666666667 0  -0.1333333333333333 -1.466666666666667 0  0 -1.466666666666667 0  0.1333333333333333 -1.466666666666667 0  0.2666666666666666 -1.466666666666667 0  0.3999999999999999 -1.466666666666667 0  0.5333333333333332 -1.466666666666667 0  0.6666666666666665 -1.466666666666667 0  0.7999999999999998 -1.466666666666667 0  0.9333333333333331 -1.466666666666667 0  1.066666666666667 -1.466666666666667 0  1.2 -1.466666666666667 0  1.333333333333333 -1.466666666666667 0  1.466666666666667 -1.466666666666667 0  1.6 -1.466666666666667 0  1.733333333333333 -1.466666666666667 0  1.866666666666667 -1.466666666666667 0  2 -1.466666666666667 0  -2 -1.333333333333333 0  -1.866666666666667 -1.333333333333333 0  -1.733333333333333 -1.333333333333333 0  -1.6 -1.333333333333333 0  -1.466666666666667 -1.333333333333333 0  -1.333333333333333 -1.333333333333333 0  -1.2 -1.333333333333333 0  -1.066666666666667 -1.333333333333333 0  -0.9333333333333333 -1.333333333333333 0  -0.8 -1.333333333333333 0  -0.6666666666666667 -1.333333333333333 0  -0.5333333333333334 -1.333333333333333 0  -0.3999999999999999 -1.333333333333333 0  -0.2666666666666666 -1.333333333333333 0  -0.1333333333333333 -1.333333333333333 0  0 -1.333333333333333 0  0.1333333333333333 -1.333333333333333 0  0.2666666666666666 -1.333333333333333 0  0.3999999999999999 -1.333333333333333 0  0.5333333333333332 -1.333333333333333 0  0.6666666666666665 -1.333333333333333 0  0.7999999999999998 -1.333333333333333 0  0.9333333333333331 -1.333333333333333 0  1.066666666666667 -1.333333333333333 0  1.2 -1.333333333333333 0  1.333333333333333 -1.333333333333333 0  1.466666666666667 -1.333333333333333 0  1.6 -1.333333333333333 0  1.733333333333333 -1.333333333333333 0  1.866666666666667 -1.333333333333333 0  2 -1.333333333333333 0  -2 -1.2 0  -1.866666666666667 -1.2 0  -1.733333333333333 -1.2 0  -1.6 -1.2 0  -1.466666666666667 -1.2 0  -1.333333333333333 -1.2 0  -1.2 -1.2 0  -1.066666666666667 -1.2 0  -0.9333333333333333 -1.2 0  -0.8 -1.2 0  -0.6666666666666667 -1.2 0  -0.5333333333333334 -1.2 0  -0.3999999999999999 -1.2 0  -0.2666666666666666 -1.2 0  -0.1333333333333333 -1.2 0  0 -1.2 0  0.1333333333333333 -1.2 0  0.2666666666666666 -1.2 0  0.3999999999999999 -1.2 0  0.5333333333333332 -1.2 0  0.6666666666666665 -1.2 0  0.7999999999999998 -1.2 0  0.9333333333333331 -1.2 0  1.066666666666667 -1.2 0  1.2 -1.2 0  1.333333333333333 -1.2 0  1.466666666666667 -1.2 0  1.6 -1.2 0  1.733333333333333 -1.2 0  1.866666666666667 -1.2 0  2 -1.2 0  -2 -1.066666666666667 0  -1.866666666666667 -1.066666666666667 0  -1.733333333333333 -1.066666666666667 0  -1.6 -1.066666666666667 0  -1.466666666666667 -1.066666666666667 0  -1.333333333333333 -1.066666666666667 0  -1.2 -1.066666666666667 0  -1.066666666666667 -1.066666666666667 0  -0.9333333333333333 -1.066666666666667 0  -0.8 -1.066666666666667 0  -0.6666666666666667 -1.066666666666667 0  -0.5333333333333334 -1.066666666666667 0  -0.3999999999999999 -1.066666666666667 0  -0.2666666666666666 -1.066666666666667 0  -0.1333333333333333 -1.066666666666667 0  0 -1.066666666666667 0  0.1333333333333333 -1.066666666666667 0  0.2666666666666666 -1.066666666666667 0  0.3999999999999999 -1.066666666666667 0  0.5333333333333332 -1.066666666666667 0  0.6666666666666665 -1.066666666666667 0  0.7999999999999998 -1.066666666666667 0  0.9333333333333331 -1.066666666666667 0  1.066666666666667 -1.066666666666667 0  1.2 -1.066666666666667 0  1.333333333333333 -1.066666666666667 0  1.466666666666667 -1.066666666666667 0  1.6 -1.066666666666667 0  1.733333333333333 -1.066666666666667 0  1.866666666666667 -1.066666666666667 0  2 -1.066666666666667 0  -2 -0.9333333333333333 0  -1.866666666666667 -0.9333333333333333 0  -1.733333333333333 -0.9333333333333333 0  -1.6 -0.9333333333333333 0  -1.466666666666667 -0.9333333333333333 0  -1.333333333333333 -0.9333333333333333 0  -1.2 -0.9333333333333333 0  -1.066666666666667 -0.9333333333333333 0  -0.9333333333333333 -0.9333333333333333 0  -0.8 -0.9333333333333333 0  -0.6666666666666667 -0.9333333333333333 0  -0.5333333333333334 -0.9333333333333333 0  -0.3999999999999999 -0.9333333333333333 0  -0.2666666666666666 -0.9333333333333333 0  -0.1333333333333333 -0.9333333333333333 0  0 -0.9333333333333333 0  0.1333333333333333 -0.9333333333333333 0  0.2666666666666666 -0.9333333333333333 0  0.3999999999999999 -0.9333333333333333 0  0.5333333333333332 -0.9333333333333333 0  0.6666666666666665 -0.9333333333333333 0  0.7999999999999998 -0.9333333333333333 0  0.9333333333333331 -0.9333333333333333 0  1.066666666666667 -0.9333333333333333 0  1.2 -0.9333333333333333 0  1.333333333333333 -0.9333333333333333 0  1.466666666666667 -0.9333333333333333 0  1.6 -0.9333333333333333 0  1.733333333333333 -0.9333333333333333 0  1.866666666666667 -0.9333333333333333 0  2 -0.9333333333333333 0  -2 -0.8 0  -1.866666666666667 -0.8 0  -1.733333333333333 -0.8 0  -1.6 -0.8 0  -1.466666666666667 -0.8 0  -1.333333333333333 -0.8 0  -1.2 -0.8 0  -1.066666666666667 -0.8 0  -0.9333333333333333 -0.8 0  -0.8 -0.8 0  -0.6666666666666667 -0.8 0  -0.5333333333333334 -0.8 0  -0.3999999999999999 -0.8 0  -0.2666666666666666 -0.8 0  -0.1333333333333333 -0.8 0  0 -0.8 0  0.1333333333333333 -0.8 0  0.2666666666666666 -0.8 0  0.3999999999999999 -0.8 0  0.5333333333333332 -0.8 0  0.6666666666666665 -0.8 0  0.7999999999999998 -0.8 0  0.9333333333333331 -0.8 0  1.066666666666667 -0.8 0  1.2 -0.8 0  1.333333333333333 -0.8 0  1.466666666666667 -0.8 0  1.6 -0.8 0  1.733333333333333 -0.8 0  1.866666666666667 -0.8 0  2 -0.8 0  -2 -0.6666666666666667 0  -1.866666666666667 -0.
[...]
<PointData  Scalars="f_8002"> 
<DataArray  type="Float64"  Name="f_8002"  format="ascii">0.0000000000000000e+00  0.0000000000000000e+00  0.0000000000000000e+00  0.0000000000000000e+00  0.0000000000000000e+00  0.0000000000000000e+00  0.0000000000000000e+00  0.0000000000000000e+00  0.0000000000000000e+00  0.0000000000000000e+00  0.0000000000000000e+00  0.0000000000000000e+00  0.0000000000000000e+00  0.0000000000000000e+00  0.0000000000000000e+00  0.0000000000000000e+00  0.0000000000000000e+00  0.0000000000000000e+00  0.0000000000000000e+00  0.0000000000000000e+00  0.0000000000000000e+00  0.0000000000000000e+00  0.0000000000000000e+00  0.0000000000000000e+00  0.0000000000000000e+00  0.0000000000000000e+00  0.0000000000000000e+00  0.0000000000000000e+00  0.0000000000000000e+00  0.0000000000000000e+00  0.0000000000000000e+00  0.0000000000000000e+00  -3.6101239891012055e-01  -6.2627664604407984e-01  -8.3393680514374813e-01  -1.0020295521005493e+00  -1.1404981516561246e+00  -1.2555120277453840e+00  -1.3512358849618207e+00  -1.4306473634664330e+00  -1.4959558875115528e+00  -1.5488356009484732e+00  -1.5905632740630868e+00  -1.6221036782538001e+00  -1.6441638675007473e+00  -1.6572278343141440e+00  -1.6615779011391496e+00  -1.6573063729956690e+00  -1.6443192365316890e+00  -1.6223324514621120e+00  -1.5908602866611399e+00  -1.5491939135740589e+00  -1.4963667280833566e+00  -1.4311000349376191e+00  -1.3517176186043665e+00  -1.2560077460372570e+00  -1.1409900740678023e+00  -1.0024965110793045e+00  -8.3435298434950100e-01  -6.2660904828565644e-01  -3.6121517708137418e-01  0.0000000000000000e+00  0.0000000000000000e+00  -6.2627664604407973e-01  -1.1190867662176764e+00  -1.5167854464320387e+00  -1.8434276412821604e+00  -2.1145760001810463e+00  -2.3407961294699029e+00  -2.5295959112418549e+00  -2.6865082011132575e+00  -2.8157156733873325e+00  -2.9204258437411577e+00  -3.0031044173294545e+00  -3.0656246252028936e+00  -3.1093643406822489e+00  -3.1352690465372937e+00  -3.1438911034339467e+00  -3.1354112766268494e+00  -3.1096455898782445e+00  -3.0660384530581193e+00  -3.0036411138731984e+00  -2.9210723610065665e+00  -2.8164555164775957e+00  -2.6873212587500528e+00  -2.5304581926050234e+00  -2.3416793514770151e+00  -2.1154469284957549e+00  -1.8442470117861811e+00  -1.5175061467361477e+00  -1.1196506758088545e+00  -6.2660904828565656e-01  0.0000000000000000e+00  0.0000000000000000e+00  -8.3393680514374813e-01  -1.5167854464320389e+00  -2.0812951348797784e+00  -2.5517223965938274e+00  -2.9457453769641710e+00  -3.2763783024124131e+00  -3.5533817817980622e+00  -3.7842118719186502e+00  -3.9746429712303657e+00  -4.1291768537064630e+00  -4.2513138574082765e+00  -4.3437344434155429e+00  -4.4084211190101570e+00  -4.4467392987309609e+00  -4.4594885163738098e+00  -4.4469307706530765e+00  -4.4087995918665746e+00  -4.3442909500074425e+00  -4.2520348801307781e+00  -4.1300442332137202e+00  -3.9756337638757171e+00  -3.7852981332852487e+00  -3.5545302405130692e+00  -3.2775498678654045e+00  -2.9468943920226058e+00  -2.5527954959216368e+00  -2.0822294969050383e+00  -1.5175061467361484e+00  -8.3435298434950145e-01  0.0000000000000000e+00  0.0000000000000000e+00  -1.0020295521005496e+00  -1.8434276412821609e+00  -2.5517223965938287e+00  -3.1494443010778079e+00  -3.6544596522703792e+00  -4.0808087012333401e+00  -4.4395441594156315e+00  -4.7394117014101766e+00  -4.9873587152167209e+00  -5.1889014387738985e+00  -5.3483858654600320e+00  -5.4691716096357688e+00  -5.5537601267963321e+00  -5.6038821049407472e+00  -5.6205538726577524e+00  -5.6041089974262048e+00  -5.5542084513897887e+00  -5.4698304168034060e+00  -5.3492386552774409e+00  -5.1899260593571928e+00  -4.9885272076161016e+00  -4.7406900705949386e+00  -4.4408920410915655e+00  -4.0821788807259951e+00  -3.6557973742663483e+00  -3.1506862898791623e+00  -2.5527954959216372e+00  -1.8442470117861818e+00  -1.0024965110793047e+00  0.0000000000000000e+00  0.0000000000000000e+00  -1.1404981516561248e+00  -2.1145760001810467e+00  -2.9457453769641702e+00  -3.6544596522703792e+00  -4.2579181234334209e+00  -4.7703323368648292e+00  -5.2033513573828953e+00  -5.5664876278879500e+00  -5.8674815928674118e+00  -6.1125916933755873e+00  -6.3068159191152304e+00  -6.4540566885087429e+00  -6.5572406331649757e+00  -6.6184027393417963e+00  -6.6387418251788528e+00  -6.6186520422241841e+00  -6.5577330772837277e+00  -6.4547799215782566e+00  -6.3077513371904237e+00  -6.1137143414423027e+00  -5.8687600167679479e+00  -5.5678836625932968e+00  -5.2048198310908829e+00  -4.7718206645931751e+00  -4.2593657596052781e+00  -3.6557973742663483e+00  -2.9468943920226072e+00  -2.1154469284957558e+00  -1.1409900740678025e+00  0.0000000000000000e+00  0.0000000000000000e+00  -1.2555120277453837e+00  -2.3407961294699011e+00  -3.2763783024124105e+00  -4.0808087012333347e+00  -4.7703323368648256e+00  -5.3588868016910265e+00  -5.8582728809158882e+00  -6.2783878029504319e+00  -6.6274593176463705e+00  -6.9122525331916709e+00  -7.1382404916835602e+00  -7.3097386130120254e+00  -7.4300066941359004e+00  -7.5013229021110064e+00  -7.5250336892422487e+00  -7.5015825561350802e+00  -7.4305194340086045e+00  -7.3104912760154068e+00  -7.1392132657586380e+00  -6.9134188695071774e+00  -6.6287858041147318e+00  -6.2798339901208813e+00  -5.8597910500815260e+00  -5.3604216651643846e+00  -4.7718206645931742e+00  -4.0821788807259933e+00  -3.2775498678654009e+00  -2.3416793514770142e+00  -1.2560077460372563e+00  0.0000000000000000e+00  0.0000000000000000e+00  -1.3512358849618198e+00  -2.5295959112418522e+00  -3.5533817817980591e+00  -4.4395441594156271e+00  -5.2033513573828909e+00  -5.8582728809158890e+00  -6.4160058871010923e+00  -6.8865778788950678e+00  -7.2784785282215445e+00  -7.5987925726456211e+00  -7.8533194580020780e+00  -8.0466738064555230e+00  -8.1823653132671890e+00  -8.2628587572953940e+00  -8.2896154956497092e+00  -8.2631177572955199e+00  -8.1828766295072199e+00  -8.0474240496177885e+00  -7.8542884885967901e+00  -7.5999534316346002e+00  -7.2797973402812888e+00  -6.8880137256778520e+00  -6.4175106490813354e+00  -5.8597910500815216e+00  -5.2048198310908775e+00  -4.4408920410915602e+00  -3.5545302405130621e+00  -2.5304581926050198e+00  -1.3517176186043651e+00  0.0000000000000000e+00  0.0000000000000000e+00  -1.4306473634664325e+00  -2.6865082011132562e+00  -3.7842118719186488e+00  -4.7394117014101758e+00  -5.5664876278879483e+00  -6.2783878029504336e+00  -6.8865778788950687e+00  -7.4010605254944677e+00  -7.8304333041712084e+00  -8.1819621767172492e+00  -8.4616563322455072e+00  -8.6743362437402762e+00  -8.8236909149279921e+00  -8.9123226450806285e+00  -8.9417788650283914e+00  -8.9125711134008689e+00  -8.8241813300671783e+00  -8.6750555463839856e+00  -8.4625848925496499e+00  -8.1830737451939530e+00  -7.8316949467345784e+00  -7.4024325446173957e+00  -6.8880137256778529e+00  -6.2798339901208760e+00  -5.5678836625932906e+00  -4.7406900705949315e+00  -3.7852981332852425e+00  -2.6873212587500483e+00  -1.4311000349376171e+00  0.0000000000000000e+00  0.0000000000000000e+00  -1.4959558875115524e+00  -2.8157156733873321e+00  -3.9746429712303657e+00  -4.9873587152167218e+00  -5.8674815928674118e+00  -6.6274593176463705e+00  -7.2784785282215472e+00  -7.8304333041712111e+00  -8.2919320921046218e+00  -8.6703263918745321e+00  -8.9717490747230322e+00  -9.2011542535393946e+00  -9.3623537049688945e+00  -9.4580469542874805e+00  -9.4898434688507578e+00  -9.4582761910552620e+00  -9.3628060761400818e+00  -9.2018175435312113e+00  -8.9726049336286096e+00  -8.6713503055355972e+00  -8.2930933461149401e+00  -7.8316949467345909e+00  -7.2797973402812959e+00  -6.6287858041147327e+00  -5.8687600167679461e+00  -4.9885272076161034e+00  -3.9756337638757184e+00  -2.8164555164775966e+00  -1.4963667280833570e+00  0.0000000000000000e+00  0.0000000000000000e+00  -1.5488356009484727e+00  -2.9204258437411568e+00  -4.1291768537064621e+00  -5.1889014387738968e+00  -6.1125916933755828e+00  -6.9122525331916700e+00  -7.5987925726456256e+00  -8.1819621767172546e+00  -8.6703263918745375e+00  -9.0712612090109097e+00  -9.3909636900563527e+00  -9.6344688545209625e+00  -9.8056683321401241e+00  -9.9073274515623186e+00  -9.9410986529079661e+00  -9.9075299676863793e+00  -9.8060679107360471e+00  -9.6350545821388529e+00  -9.3917191821779600e+00  -9.0721645959080615e+00  -8.6713503055356096e+00  -8.1830737451939743e+00  -7.5999534316346207e+00  -6.9134188695071863e+00  -6.1137143414423072e+00  -5.1899260593571981e+00  -4.1300442332137255e+00  -2.9210723610065714e+00  -1.5491939135740616e+00  0.0000000000000000e+00  0.0000000000000000e+00  -1.5905632740630864e+00  -3.0031044173294532e+00  -4.2513138574082738e+00  -5.3483858654600294e+00  -6.3068159191152251e+00  -7.1382404916835620e+00  -7.8533194580020780e+00  -8.4616563322455125e+00  -8.9717490747230375e+00  -9.3909636900563580e+00  -9.7255235201607420e+00  -9.9805083574533064e+00  -1.0159858835995975e+01  -1.0266382774828994e+01  -1.0301761165276908e+01  -1.0266552312625647e+01  -1.0160193304026510e+01  -9.9809985379670625e+00  -9.7261555811369540e+00  -9.3917191821779742e+00  -8.9726049336286398e+00  -8.4625848925496800e+00  -7.8542884885968185e+00  -7.1392132657586513e+00  -6.3077513371904326e+00  -5.3492386552774489e+00  -4.2520348801307879e+00  -3.0036411138732069e+00  -1.5908602866611439e+00  0.0000000000000000e+00  0.0000000000000000e+00  -1.6221036782537985e+00  -3.0656246252028900e+00  -4.3437344434155376e+00  -5.4691716096357617e+00  -6.4540566885087340e+00  -7.3097386130120201e+00  -8.0466738064555212e+00  -8.6743362437402780e+00  -9.2011542535394000e+00  -9.6344688545209625e+00  -9.9805083574533011e+00  -1.0244374475840296e+01  -1.0430035968992438e+01  -1.0540326694505165e+01  -1.0576945764482174e+01  -1.0540458239851816e+01  -1.0430295459756969e+01  -1.0244754711720354e+01  -9.9809985379670572e+00  -9.6350545821388636e+00  -9.2018175435312344e+00  -8.6750555463840158e+00  -8.0474240496178222e+00  -7.3104912760154228e+00  -6.4547799215782637e+00  -5.4698304168034140e+00  -4.3442909500074496e+00  -3.0660384530581255e+00  -1.6223324514621154e+00  0.0000000000000000e+00  0.0000000000000000e+00  -1.6441638675007464e+00  -3.1093643406822435e+00  -4.4084211190101472e+00  -5.5537601267963215e+00  -6.5572406331649615e+00  -7.4300066941358880e+00  -8.1823653132671907e+00  -8.8236909149279974e+00  -9.3623537049688981e+00  -9.8056683321401135e+00  -1.0159858835995967e+01  -1.0430035968992437e+01  -1.0620183409967387e+01  -1.0733149983751810e+01  -1.0770645660848910e+01  -1.0733239772734944e+01  -1.0620360518763221e+01  -1.0430295459756961e+01  -1.0160193304026494e+01  -9.8060679107360471e+00  -9.3628060761400960e+00  -8.8241813300672067e+00  -8.1828766295072466e+00  -7.4305194340086205e+00  -6.5577330772837357e+00  -5.5542084513897940e+00  -4.4087995918665790e+00  -3.1096455898782485e+00  -1.6443192365316914e+00  0.0000000000000000e+00  0.0000000000000000e+00  -1.6572278343141422e+00  -3.1352690465372852e+00  -4.4467392987309466e+00  -5.6038821049407339e+00  -6.6184027393417830e+00  -7.5013229021109984e+00  -8.2628587572953869e+00  -8.9123226450806285e+00  -9.4580469542874805e+00  -9.9073274515623080e+00  -1.0266382774828983e+01  -1.0540326694505159e+01  -1.0733149983751806e+01  -1.0847709188005929e+01  -1.0885720144588817e+01  -1.0847754710223107e+01  -1.0733239772734928e+01  -1.0540458239851803e+01  -1.0266552312625631e+01  -9.9075299676863775e+00  -9.4582761910552708e+00  -8.9125711134008938e+00  -8.2631177572955430e+00  -7.5015825561350935e+00  -6.6186520422241903e+00  -5.6041089974262102e+00  -4.4469307706530774e+00  -3.1354112766268525e+00  -1.6573063729956714e+00  0.0000000000000000e+00  0.0000000000000000e+00  -1.6615779011391458e+00  -3.1438911034339374e+00  -4.4594885163737956e+00  -5.6205538726577364e+00  -6.6387418251788350e+00  -7.5250336892422416e+00  -8.2896154956497003e+00  -8.9417788650283843e+00  -9.4898434688507436e+00  -9.9410986529079537e+00  -1.0301761165276892e+01  -1.0576945764482167e+01  -1.0770645660848897e+01  -1.0885720144588808e+01  -1.0923887281458216e+01  -1.0885720144588815e+01  -1.0770645660848897e+01  -1.0576945764482158e+01  -1.0301761165276892e+01  -9.9410986529079661e+00  -9.4898434688507631e+00  -8.9417788650284162e+00  -8.2896154956497217e+00  -7.5250336892422576e+00  -6.6387418251788590e+00  -5.6205538726577569e+00  -4.4594885163738116e+00  -3.1438911034339490e+00  -1.6615779011391518e+00  0.0000000000000000e+00  0.0000000000000000e+00  -1.6573063729956652e+00  -3.1354112766268405e+00  -4.4469307706530632e+00  -5.6041089974261897e+00  -6.6186520422241681e+00  -7.5015825561350722e+00  -8.2631177572955128e+00  -8.9125711134008583e+00  -9.4582761910552406e+00  -9.9075299676863580e+00  -1.0266552312625622e+01  -1.0540458239851802e+01  -1.0733239772734921e+01  -1.0847754710223088e+01  -1.0885720144588802e+01  -1.0847709188005927e+01  -1.0733149983751794e+01  -1.0540326694505142e+01  -1.0266382774828974e+01  -9.9073274515623133e+00  -9.4580469542874877e+00  -8.9123226450806516e+00  -8.2628587572954082e+00  -7.5013229021110126e+00  -6.6184027393418017e+00  -5.6038821049407526e+00  -4.4467392987309626e+00  -3.1352690465372954e+00  -1.6572278343141471e+00  0.0000000000000000e+00  0.0000000000000000e+00  -1.6443192365316850e+00  -3.1096455898782360e+00  -4.4087995918665630e+00  -5.5542084513897736e+00  -6.5577330772837135e+00  -7.4305194340085947e+00  -8.1828766295072164e+00  -8.8241813300671694e+00  -9.3628060761400604e+00  -9.8060679107360169e+00  -1.0160193304026478e+01  -1.0430295459756950e+01  -1.0620360518763201e+01  -1.0733239772734910e+01  -1.0770645660848887e+01  -1.0733149983751790e+01  -1.0620183409967371e+01  -1.0430035968992426e+01  -1.0159858835995959e+01  -9.8056683321401206e+00  -9.3623537049689034e+00  -8.8236909149280152e+00  -8.1823653132672067e+00  -7.4300066941359093e+00  -6.5572406331649820e+00  -5.5537601267963392e+00  -4.4084211190101614e+00  -3.1093643406822502e+00  -1.6441638675007493e+00  0.0000000000000000e+00  0.0000000000000000e+00  -1.6223324514621089e+00  -3.0660384530581135e+00  -4.3442909500074327e+00  -5.4698304168033944e+00  -6.4547799215782433e+00  -7.3104912760153962e+00  -8.0474240496177831e+00  -8.6750555463839731e+00  -9.2018175435311953e+00  -9.6350545821388316e+00  -9.9809985379670376e+00  -1.0244754711720335e+01  -1.0430295459756941e+01  -1.0540458239851786e+01  -1.0576945764482144e+01  -1.0540326694505135e+01  -1.0430035968992417e+01  -1.0244374475840280e+01  -9.9805083574532922e+00  -9.6344688545209625e+00  -9.2011542535394071e+00  -8.6743362437402993e+00  -8.0466738064555408e+00  -7.3097386130120388e+00  -6.4540566885087509e+00  -5.4691716096357741e+00  -4.3437344434155456e+00  -3.0656246252028949e+00  -1.6221036782538010e+00  0.0000000000000000e+00  0.0000000000000000e+00  -1.5908602866611372e+00  -3.0036411138731931e+00  -4.2520348801307719e+00  -5.3492386552774338e+00  -6.3077513371904139e+00  -7.1392132657586309e+00  -7.8542884885967803e+00  -8.4625848925496374e+00  -8.9726049336285953e+00  -9.3917191821779422e+00  -9.7261555811369256e+00  -9.9809985379670358e+00  -1.0160193304026469e+01  -1.0266552312625610e+01  -1.0301761165276877e+01  -1.0266382774828964e+01  -1.0159858835995948e+01  -9.9805083574532851e+00  -9.7255235201607313e+00  -9.3909636900563545e+00  -8.9717490747230464e+00  -8.4616563322455356e+00  -7.8533194580021064e+00  -7.1382404916835807e+00  -6.3068159191152420e+00  -5.3483858654600374e+00  -4.2513138574082783e+00  -3.0031044173294550e+00  -1.5905632740630873e+00  0.0000000000000000e+00  0.0000000000000000e+00  -1.5491939135740562e+00  -2.9210723610065625e+00  -4.1300442332137139e+00  -5.1899260593571848e+00  -6.1137143414422921e+00  -6.9134188695071703e+00  -7.5999534316345914e+00  -8.1830737451939388e+00  -8.6713503055355794e+00  -9.0721645959080401e+00  -9.3917191821779493e+00  -9.6350545821388387e+00  -9.8060679107360187e+00  -9.9075299676863526e+00  -9.9410986529079430e+00  -9.9073274515622956e+00  -9.8056683321401010e+00  -9.6344688545209483e+00  -9.3909636900563473e+00  -9.0712612090109168e+00  -8.6703263918745535e+00  -8.1819621767172865e+00  -7.5987925726456602e+00  -6.9122525331916913e+00  -6.1125916933755997e+00  -5.1889014387739065e+00  -4.1291768537064684e+00  -2.9204258437411608e+00  -1.5488356009484741e+00  0.0000000000000000e+00  0.0000000000000000e+00  -1.4963667280833532e+00  -2.8164555164775904e+00  -3.9756337638757109e+00  -4.9885272076160918e+00  -5.8687600167679337e+00  -6.6287858041147238e+00  -7.2797973402812799e+00  -7.8316949467345660e+00  -8.2930933461149188e+00  -8.6713503055355829e+00  -8.9726049336286060e+00  -9.2018175435312077e+00  -9.3628060761400640e+00  -9.4582761910552460e+00  -9.4898434688507400e+00  -9.4580469542874663e+00  -9.3623537049688839e+00  -9.2011542535393858e+00  -8.9717490747230340e+00  -8.6703263918745463e+00  -8.2919320921046431e+00  -7.8304333041712448e+00  -7.2784785282215756e+00  -6.6274593176463918e+00  -5.8674815928674278e+00  -4.9873587152167351e+00  -3.9746429712303728e+00  -2.8157156733873379e+00  -1.4959558875115551e+00  0.0000000000000000e+00  0.0000000000000000e+00  -1.4311000349376151e+00  -2.6873212587500452e+00  -3.7852981332852371e+00  -4.7406900705949253e+00  -5.5678836625932853e+00  -6.2798339901208688e+00  -6.8880137256778369e+00  -7.4024325446173735e+00  -7.8316949467345625e+00  -8.1830737451939441e+00  -8.4625848925496499e+00  -8.6750555463839909e+00  -8.8241813300671783e+00  -8.9125711134008636e+00  -8.9417788650283860e+00  -8.9123226450806250e+00  -8.8236909149279903e+00  -8.6743362437402727e+00  -8.4616563322455125e+00  -8.1819621767172670e+00  -7.8304333041712368e+00  -7.4010605254945041e+00  -6.8865778788950971e+00  -6.2783878029504532e+00  -5.5664876278879643e+00  -4.7394117014101882e+00  -3.7842118719186564e+00  -2.6865082011132628e+00  -1.4306473634664356e+00  0.0000000000000000e+00  0.0000000000000000e+00  -1.3517176186043625e+00  -2.5304581926050154e+00  -3.5545302405130563e+00  -4.4408920410915513e+00  -5.2048198310908687e+00  -5.8597910500815136e+00  -6.4175106490813194e+00  -6.8880137256778307e+00  -7.2797973402812710e+00  -7.5999534316345922e+00  -7.8542884885967945e+00  -8.0474240496177956e+00  -8.1828766295072235e+00  -8.2631177572955181e+00  -8.2896154956497003e+00  -8.2628587572953851e+00  -8.1823653132671890e+00  -8.0466738064555159e+00  -7.8533194580020762e+00  -7.5987925726456327e+00  -7.2784785282215623e+00  -6.8865778788950927e+00  -6.4160058871011136e+00  -5.8582728809159041e+00  -5.2033513573829051e+00  -4.4395441594156360e+00  -3.5533817817980657e+00  -2.5295959112418562e+00  -1.3512358849618218e+00  0.0000000000000000e+00  0.0000000000000000e+00  -1.2560077460372538e+00  -2.3416793514770089e+00  -3.2775498678653956e+00  -4.0821788807259862e+00  -4.7718206645931653e+00  -5.3604216651643748e+00  -5.8597910500815100e+00  -6.2798339901208600e+00  -6.6287858041147105e+00  -6.9134188695071641e+00  -7.1392132657586354e+00  -7.3104912760154050e+00  -7.4305194340086027e+00  -7.5015825561350749e+00  -7.5250336892422380e+00  -7.5013229021109966e+00  -7.4300066941358924e+00  -7.3097386130120166e+00  -7.1382404916835593e+00  -6.9122525331916771e+00  -6.6274593176463821e+00  -6.2783878029504505e+00  -5.8582728809159059e+00  -5.3588868016910380e+00  -4.7703323368648354e+00  -4.0808087012333418e+00  -3.2763783024124153e+00  -2.3407961294699033e+00  -1.2555120277453851e+00  0.0000000000000000e+00  0.0000000000000000e+00  -1.1409900740677998e+00  -2.1154469284957518e+00  -2.9468943920226014e+00  -3.6557973742663417e+00  -4.2593657596052719e+00  -4.7718206645931671e+00  -5.2048198310908687e+00  -5.5678836625932782e+00  -5.8687600167679310e+00  -6.1137143414422930e+00  -6.3077513371904192e+00  -6.4547799215782540e+00  -6.5577330772837277e+00  -6.6186520422241744e+00  -6.6387418251788421e+00  -6.6184027393417866e+00  -6.5572406331649704e+00  -6.4540566885087376e+00  -6.3068159191152269e+00  -6.1125916933755926e+00  -5.8674815928674251e+00  -5.5664876278879651e+00  -5.2033513573829069e+00  -4.7703323368648